   2   2   0   0
  0.4620000E+04  0.2000000E-08  0.2100000E-08  0.2200000E-08  0.3500000E-15
  1.000000000000000E-004
  CAR 
 unknown system                          
      1.31356013    -11.32739196  301     -9.85244962      1.00000000
    -11.327  0.0000E+00  0.0000E+00  0.0000E+00  0.0000E+00
    -11.285  0.0000E+00  0.0000E+00  0.0000E+00  0.0000E+00
    -11.243  0.0000E+00  0.0000E+00  0.0000E+00  0.0000E+00
    -11.201  0.0000E+00  0.0000E+00  0.0000E+00  0.0000E+00
    -11.159  0.0000E+00  0.0000E+00  0.0000E+00  0.0000E+00
    -11.117  0.0000E+00  0.0000E+00  0.0000E+00  0.0000E+00
    -11.075  0.0000E+00  0.0000E+00  0.0000E+00  0.0000E+00
    -11.032  0.0000E+00  0.0000E+00  0.0000E+00  0.0000E+00
    -10.990  0.0000E+00  0.0000E+00  0.0000E+00  0.0000E+00
    -10.948  0.0000E+00  0.0000E+00  0.0000E+00  0.0000E+00
    -10.906  0.2635E-17  0.2635E-17  0.1110E-18  0.1110E-18
    -10.864  0.3847E-15  0.3847E-15  0.1632E-16  0.1632E-16
    -10.822  0.3192E-13  0.3192E-13  0.1361E-14  0.1361E-14
    -10.780  0.1867E-11  0.1867E-11  0.8005E-13  0.8004E-13
    -10.737  0.7701E-10  0.7700E-10  0.3325E-11  0.3325E-11
    -10.695  0.2240E-08  0.2240E-08  0.9772E-10  0.9771E-10
    -10.653  0.4599E-07  0.4598E-07  0.2035E-08  0.2035E-08
    -10.611  0.6666E-06  0.6666E-06  0.3012E-07  0.3012E-07
    -10.569  0.6828E-05  0.6827E-05  0.3178E-06  0.3178E-06
    -10.527  0.4944E-04  0.4943E-04  0.2401E-05  0.2401E-05
    -10.485  0.2532E-03  0.2532E-03  0.1307E-04  0.1307E-04
    -10.443  0.9177E-03  0.9177E-03  0.5174E-04  0.5174E-04
    -10.400  0.2355E-02  0.2355E-02  0.1510E-03  0.1510E-03
    -10.358  0.4279E-02  0.4279E-02  0.3313E-03  0.3313E-03
    -10.316  0.5508E-02  0.5508E-02  0.5634E-03  0.5633E-03
    -10.274  0.5023E-02  0.5023E-02  0.7750E-03  0.7750E-03
    -10.232  0.3244E-02  0.3244E-02  0.9117E-03  0.9117E-03
    -10.190  0.1484E-02  0.1484E-02  0.9742E-03  0.9742E-03
    -10.148  0.4809E-03  0.4809E-03  0.9945E-03  0.9945E-03
    -10.105  0.1103E-03  0.1103E-03  0.9992E-03  0.9992E-03
    -10.063  0.1789E-04  0.1789E-04  0.9999E-03  0.9999E-03
    -10.021  0.2052E-05  0.2052E-05  0.1000E-02  0.1000E-02
     -9.979  0.1664E-06  0.1664E-06  0.1000E-02  0.1000E-02
     -9.937  0.9529E-08  0.9530E-08  0.1000E-02  0.1000E-02
     -9.895  0.3852E-09  0.3852E-09  0.1000E-02  0.1000E-02
     -9.853  0.1099E-10  0.1099E-10  0.1000E-02  0.1000E-02
     -9.810  0.2210E-12  0.2210E-12  0.1000E-02  0.1000E-02
     -9.768  0.3130E-14  0.3133E-14  0.1000E-02  0.1000E-02
     -9.726  0.3162E-16  0.3162E-16  0.1000E-02  0.1000E-02
     -9.684  0.0000E+00  0.0000E+00  0.1000E-02  0.1000E-02
     -9.642  0.0000E+00  0.0000E+00  0.1000E-02  0.1000E-02
     -9.600  0.0000E+00  0.0000E+00  0.1000E-02  0.1000E-02
     -9.558  0.0000E+00  0.0000E+00  0.1000E-02  0.1000E-02
     -9.516  0.0000E+00  0.0000E+00  0.1000E-02  0.1000E-02
     -9.473  0.0000E+00  0.0000E+00  0.1000E-02  0.1000E-02
     -9.431  0.0000E+00  0.0000E+00  0.1000E-02  0.1000E-02
     -9.389  0.0000E+00  0.0000E+00  0.1000E-02  0.1000E-02
     -9.347  0.0000E+00  0.0000E+00  0.1000E-02  0.1000E-02
     -9.305  0.0000E+00  0.0000E+00  0.1000E-02  0.1000E-02
     -9.263  0.0000E+00  0.0000E+00  0.1000E-02  0.1000E-02
     -9.221  0.0000E+00  0.0000E+00  0.1000E-02  0.1000E-02
     -9.178  0.0000E+00  0.0000E+00  0.1000E-02  0.1000E-02
     -9.136  0.0000E+00  0.0000E+00  0.1000E-02  0.1000E-02
     -9.094  0.0000E+00  0.0000E+00  0.1000E-02  0.1000E-02
     -9.052  0.0000E+00  0.0000E+00  0.1000E-02  0.1000E-02
     -9.010  0.0000E+00  0.0000E+00  0.1000E-02  0.1000E-02
     -8.968  0.0000E+00  0.0000E+00  0.1000E-02  0.1000E-02
     -8.926  0.0000E+00  0.0000E+00  0.1000E-02  0.1000E-02
     -8.883  0.0000E+00  0.0000E+00  0.1000E-02  0.1000E-02
     -8.841  0.0000E+00  0.0000E+00  0.1000E-02  0.1000E-02
     -8.799  0.0000E+00  0.0000E+00  0.1000E-02  0.1000E-02
     -8.757  0.0000E+00  0.0000E+00  0.1000E-02  0.1000E-02
     -8.715  0.0000E+00  0.0000E+00  0.1000E-02  0.1000E-02
     -8.673  0.0000E+00  0.0000E+00  0.1000E-02  0.1000E-02
     -8.631  0.0000E+00  0.0000E+00  0.1000E-02  0.1000E-02
     -8.589  0.0000E+00  0.0000E+00  0.1000E-02  0.1000E-02
     -8.546  0.0000E+00  0.0000E+00  0.1000E-02  0.1000E-02
     -8.504  0.0000E+00  0.0000E+00  0.1000E-02  0.1000E-02
     -8.462  0.0000E+00  0.0000E+00  0.1000E-02  0.1000E-02
     -8.420  0.0000E+00  0.0000E+00  0.1000E-02  0.1000E-02
     -8.378  0.0000E+00  0.0000E+00  0.1000E-02  0.1000E-02
     -8.336  0.0000E+00  0.0000E+00  0.1000E-02  0.1000E-02
     -8.294  0.0000E+00  0.0000E+00  0.1000E-02  0.1000E-02
     -8.251  0.0000E+00  0.0000E+00  0.1000E-02  0.1000E-02
     -8.209  0.0000E+00  0.0000E+00  0.1000E-02  0.1000E-02
     -8.167  0.0000E+00  0.0000E+00  0.1000E-02  0.1000E-02
     -8.125  0.0000E+00  0.0000E+00  0.1000E-02  0.1000E-02
     -8.083  0.0000E+00  0.0000E+00  0.1000E-02  0.1000E-02
     -8.041  0.0000E+00  0.0000E+00  0.1000E-02  0.1000E-02
     -7.999  0.0000E+00  0.0000E+00  0.1000E-02  0.1000E-02
     -7.956  0.0000E+00  0.0000E+00  0.1000E-02  0.1000E-02
     -7.914  0.0000E+00  0.0000E+00  0.1000E-02  0.1000E-02
     -7.872  0.0000E+00  0.0000E+00  0.1000E-02  0.1000E-02
     -7.830  0.0000E+00  0.0000E+00  0.1000E-02  0.1000E-02
     -7.788  0.0000E+00  0.0000E+00  0.1000E-02  0.1000E-02
     -7.746  0.0000E+00  0.0000E+00  0.1000E-02  0.1000E-02
     -7.704  0.0000E+00  0.0000E+00  0.1000E-02  0.1000E-02
     -7.662  0.0000E+00  0.0000E+00  0.1000E-02  0.1000E-02
     -7.619  0.0000E+00  0.0000E+00  0.1000E-02  0.1000E-02
     -7.577  0.0000E+00  0.0000E+00  0.1000E-02  0.1000E-02
     -7.535  0.0000E+00  0.0000E+00  0.1000E-02  0.1000E-02
     -7.493  0.0000E+00  0.0000E+00  0.1000E-02  0.1000E-02
     -7.451  0.0000E+00  0.0000E+00  0.1000E-02  0.1000E-02
     -7.409  0.0000E+00  0.0000E+00  0.1000E-02  0.1000E-02
     -7.367  0.0000E+00  0.0000E+00  0.1000E-02  0.1000E-02
     -7.324  0.0000E+00  0.0000E+00  0.1000E-02  0.1000E-02
     -7.282  0.0000E+00  0.0000E+00  0.1000E-02  0.1000E-02
     -7.240  0.0000E+00  0.0000E+00  0.1000E-02  0.1000E-02
     -7.198  0.0000E+00  0.0000E+00  0.1000E-02  0.1000E-02
     -7.156  0.0000E+00  0.0000E+00  0.1000E-02  0.1000E-02
     -7.114  0.0000E+00  0.0000E+00  0.1000E-02  0.1000E-02
     -7.072  0.0000E+00  0.0000E+00  0.1000E-02  0.1000E-02
     -7.029  0.0000E+00  0.0000E+00  0.1000E-02  0.1000E-02
     -6.987  0.0000E+00  0.0000E+00  0.1000E-02  0.1000E-02
     -6.945  0.0000E+00  0.0000E+00  0.1000E-02  0.1000E-02
     -6.903  0.0000E+00  0.0000E+00  0.1000E-02  0.1000E-02
     -6.861  0.0000E+00  0.0000E+00  0.1000E-02  0.1000E-02
     -6.819  0.0000E+00  0.0000E+00  0.1000E-02  0.1000E-02
     -6.777  0.0000E+00  0.0000E+00  0.1000E-02  0.1000E-02
     -6.735  0.0000E+00  0.0000E+00  0.1000E-02  0.1000E-02
     -6.692  0.0000E+00  0.0000E+00  0.1000E-02  0.1000E-02
     -6.650  0.0000E+00  0.0000E+00  0.1000E-02  0.1000E-02
     -6.608  0.0000E+00  0.0000E+00  0.1000E-02  0.1000E-02
     -6.566  0.0000E+00  0.0000E+00  0.1000E-02  0.1000E-02
     -6.524  0.0000E+00  0.0000E+00  0.1000E-02  0.1000E-02
     -6.482  0.0000E+00  0.0000E+00  0.1000E-02  0.1000E-02
     -6.440  0.0000E+00  0.0000E+00  0.1000E-02  0.1000E-02
     -6.397  0.0000E+00  0.0000E+00  0.1000E-02  0.1000E-02
     -6.355  0.0000E+00  0.0000E+00  0.1000E-02  0.1000E-02
     -6.313  0.0000E+00  0.0000E+00  0.1000E-02  0.1000E-02
     -6.271  0.0000E+00  0.0000E+00  0.1000E-02  0.1000E-02
     -6.229  0.0000E+00  0.0000E+00  0.1000E-02  0.1000E-02
     -6.187  0.0000E+00  0.0000E+00  0.1000E-02  0.1000E-02
     -6.145  0.0000E+00  0.0000E+00  0.1000E-02  0.1000E-02
     -6.102  0.0000E+00  0.0000E+00  0.1000E-02  0.1000E-02
     -6.060  0.0000E+00  0.0000E+00  0.1000E-02  0.1000E-02
     -6.018  0.0000E+00  0.0000E+00  0.1000E-02  0.1000E-02
     -5.976  0.0000E+00  0.0000E+00  0.1000E-02  0.1000E-02
     -5.934  0.0000E+00  0.0000E+00  0.1000E-02  0.1000E-02
     -5.892  0.0000E+00  0.0000E+00  0.1000E-02  0.1000E-02
     -5.850  0.0000E+00  0.0000E+00  0.1000E-02  0.1000E-02
     -5.808  0.0000E+00  0.0000E+00  0.1000E-02  0.1000E-02
     -5.765  0.0000E+00  0.0000E+00  0.1000E-02  0.1000E-02
     -5.723  0.0000E+00  0.0000E+00  0.1000E-02  0.1000E-02
     -5.681  0.0000E+00  0.0000E+00  0.1000E-02  0.1000E-02
     -5.639  0.0000E+00  0.0000E+00  0.1000E-02  0.1000E-02
     -5.597  0.0000E+00  0.0000E+00  0.1000E-02  0.1000E-02
     -5.555  0.0000E+00  0.0000E+00  0.1000E-02  0.1000E-02
     -5.513  0.0000E+00  0.0000E+00  0.1000E-02  0.1000E-02
     -5.470  0.0000E+00  0.0000E+00  0.1000E-02  0.1000E-02
     -5.428  0.0000E+00  0.0000E+00  0.1000E-02  0.1000E-02
     -5.386  0.0000E+00  0.0000E+00  0.1000E-02  0.1000E-02
     -5.344  0.0000E+00  0.0000E+00  0.1000E-02  0.1000E-02
     -5.302  0.0000E+00  0.0000E+00  0.1000E-02  0.1000E-02
     -5.260  0.0000E+00  0.0000E+00  0.1000E-02  0.1000E-02
     -5.218  0.0000E+00  0.0000E+00  0.1000E-02  0.1000E-02
     -5.175  0.0000E+00  0.0000E+00  0.1000E-02  0.1000E-02
     -5.133  0.0000E+00  0.0000E+00  0.1000E-02  0.1000E-02
     -5.091  0.0000E+00  0.0000E+00  0.1000E-02  0.1000E-02
     -5.049  0.0000E+00  0.0000E+00  0.1000E-02  0.1000E-02
     -5.007  0.0000E+00  0.0000E+00  0.1000E-02  0.1000E-02
     -4.965  0.0000E+00  0.0000E+00  0.1000E-02  0.1000E-02
     -4.923  0.0000E+00  0.0000E+00  0.1000E-02  0.1000E-02
     -4.881  0.0000E+00  0.0000E+00  0.1000E-02  0.1000E-02
     -4.838  0.0000E+00  0.0000E+00  0.1000E-02  0.1000E-02
     -4.796  0.0000E+00  0.0000E+00  0.1000E-02  0.1000E-02
     -4.754  0.0000E+00  0.0000E+00  0.1000E-02  0.1000E-02
     -4.712  0.0000E+00  0.0000E+00  0.1000E-02  0.1000E-02
     -4.670  0.0000E+00  0.0000E+00  0.1000E-02  0.1000E-02
     -4.628  0.0000E+00  0.0000E+00  0.1000E-02  0.1000E-02
     -4.586  0.0000E+00  0.0000E+00  0.1000E-02  0.1000E-02
     -4.543  0.0000E+00  0.0000E+00  0.1000E-02  0.1000E-02
     -4.501  0.0000E+00  0.0000E+00  0.1000E-02  0.1000E-02
     -4.459  0.0000E+00  0.0000E+00  0.1000E-02  0.1000E-02
     -4.417  0.0000E+00  0.0000E+00  0.1000E-02  0.1000E-02
     -4.375  0.0000E+00  0.0000E+00  0.1000E-02  0.1000E-02
     -4.333  0.0000E+00  0.0000E+00  0.1000E-02  0.1000E-02
     -4.291  0.0000E+00  0.0000E+00  0.1000E-02  0.1000E-02
     -4.248  0.0000E+00  0.0000E+00  0.1000E-02  0.1000E-02
     -4.206  0.0000E+00  0.0000E+00  0.1000E-02  0.1000E-02
     -4.164  0.0000E+00  0.0000E+00  0.1000E-02  0.1000E-02
     -4.122  0.0000E+00  0.0000E+00  0.1000E-02  0.1000E-02
     -4.080  0.0000E+00  0.0000E+00  0.1000E-02  0.1000E-02
     -4.038  0.0000E+00  0.0000E+00  0.1000E-02  0.1000E-02
     -3.996  0.0000E+00  0.0000E+00  0.1000E-02  0.1000E-02
     -3.954  0.0000E+00  0.0000E+00  0.1000E-02  0.1000E-02
     -3.911  0.0000E+00  0.0000E+00  0.1000E-02  0.1000E-02
     -3.869  0.0000E+00  0.0000E+00  0.1000E-02  0.1000E-02
     -3.827  0.0000E+00  0.0000E+00  0.1000E-02  0.1000E-02
     -3.785  0.0000E+00  0.0000E+00  0.1000E-02  0.1000E-02
     -3.743  0.0000E+00  0.0000E+00  0.1000E-02  0.1000E-02
     -3.701  0.0000E+00  0.0000E+00  0.1000E-02  0.1000E-02
     -3.659  0.0000E+00  0.0000E+00  0.1000E-02  0.1000E-02
     -3.616  0.0000E+00  0.0000E+00  0.1000E-02  0.1000E-02
     -3.574  0.0000E+00  0.0000E+00  0.1000E-02  0.1000E-02
     -3.532  0.0000E+00  0.0000E+00  0.1000E-02  0.1000E-02
     -3.490  0.0000E+00  0.0000E+00  0.1000E-02  0.1000E-02
     -3.448  0.0000E+00  0.0000E+00  0.1000E-02  0.1000E-02
     -3.406  0.0000E+00  0.0000E+00  0.1000E-02  0.1000E-02
     -3.364  0.0000E+00  0.0000E+00  0.1000E-02  0.1000E-02
     -3.321  0.0000E+00  0.0000E+00  0.1000E-02  0.1000E-02
     -3.279  0.0000E+00  0.0000E+00  0.1000E-02  0.1000E-02
     -3.237  0.0000E+00  0.0000E+00  0.1000E-02  0.1000E-02
     -3.195  0.0000E+00  0.0000E+00  0.1000E-02  0.1000E-02
     -3.153  0.0000E+00  0.0000E+00  0.1000E-02  0.1000E-02
     -3.111  0.0000E+00  0.0000E+00  0.1000E-02  0.1000E-02
     -3.069  0.0000E+00  0.0000E+00  0.1000E-02  0.1000E-02
     -3.027  0.0000E+00  0.0000E+00  0.1000E-02  0.1000E-02
     -2.984  0.0000E+00  0.0000E+00  0.1000E-02  0.1000E-02
     -2.942  0.0000E+00  0.0000E+00  0.1000E-02  0.1000E-02
     -2.900  0.0000E+00  0.0000E+00  0.1000E-02  0.1000E-02
     -2.858  0.0000E+00  0.0000E+00  0.1000E-02  0.1000E-02
     -2.816  0.0000E+00  0.0000E+00  0.1000E-02  0.1000E-02
     -2.774  0.0000E+00  0.0000E+00  0.1000E-02  0.1000E-02
     -2.732  0.0000E+00  0.0000E+00  0.1000E-02  0.1000E-02
     -2.689  0.0000E+00  0.0000E+00  0.1000E-02  0.1000E-02
     -2.647  0.0000E+00  0.0000E+00  0.1000E-02  0.1000E-02
     -2.605  0.0000E+00  0.0000E+00  0.1000E-02  0.1000E-02
     -2.563  0.0000E+00  0.0000E+00  0.1000E-02  0.1000E-02
     -2.521  0.0000E+00  0.0000E+00  0.1000E-02  0.1000E-02
     -2.479  0.0000E+00  0.0000E+00  0.1000E-02  0.1000E-02
     -2.437  0.0000E+00  0.0000E+00  0.1000E-02  0.1000E-02
     -2.394  0.0000E+00  0.0000E+00  0.1000E-02  0.1000E-02
     -2.352  0.0000E+00  0.0000E+00  0.1000E-02  0.1000E-02
     -2.310  0.0000E+00  0.0000E+00  0.1000E-02  0.1000E-02
     -2.268  0.0000E+00  0.0000E+00  0.1000E-02  0.1000E-02
     -2.226  0.0000E+00  0.0000E+00  0.1000E-02  0.1000E-02
     -2.184  0.0000E+00  0.0000E+00  0.1000E-02  0.1000E-02
     -2.142  0.0000E+00  0.0000E+00  0.1000E-02  0.1000E-02
     -2.099  0.0000E+00  0.0000E+00  0.1000E-02  0.1000E-02
     -2.057  0.0000E+00  0.0000E+00  0.1000E-02  0.1000E-02
     -2.015  0.0000E+00  0.0000E+00  0.1000E-02  0.1000E-02
     -1.973  0.0000E+00  0.0000E+00  0.1000E-02  0.1000E-02
     -1.931  0.0000E+00  0.0000E+00  0.1000E-02  0.1000E-02
     -1.889  0.0000E+00  0.0000E+00  0.1000E-02  0.1000E-02
     -1.847  0.0000E+00  0.0000E+00  0.1000E-02  0.1000E-02
     -1.805  0.0000E+00  0.0000E+00  0.1000E-02  0.1000E-02
     -1.762  0.0000E+00  0.0000E+00  0.1000E-02  0.1000E-02
     -1.720  0.0000E+00  0.0000E+00  0.1000E-02  0.1000E-02
     -1.678  0.0000E+00  0.0000E+00  0.1000E-02  0.1000E-02
     -1.636  0.0000E+00  0.0000E+00  0.1000E-02  0.1000E-02
     -1.594  0.0000E+00  0.0000E+00  0.1000E-02  0.1000E-02
     -1.552  0.0000E+00  0.0000E+00  0.1000E-02  0.1000E-02
     -1.510  0.0000E+00  0.0000E+00  0.1000E-02  0.1000E-02
     -1.467  0.0000E+00  0.0000E+00  0.1000E-02  0.1000E-02
     -1.425  0.0000E+00  0.0000E+00  0.1000E-02  0.1000E-02
     -1.383  0.0000E+00  0.0000E+00  0.1000E-02  0.1000E-02
     -1.341  0.0000E+00  0.0000E+00  0.1000E-02  0.1000E-02
     -1.299  0.0000E+00  0.0000E+00  0.1000E-02  0.1000E-02
     -1.257  0.0000E+00  0.0000E+00  0.1000E-02  0.1000E-02
     -1.215  0.0000E+00  0.0000E+00  0.1000E-02  0.1000E-02
     -1.172  0.0000E+00  0.0000E+00  0.1000E-02  0.1000E-02
     -1.130  0.0000E+00  0.0000E+00  0.1000E-02  0.1000E-02
     -1.088  0.0000E+00  0.0000E+00  0.1000E-02  0.1000E-02
     -1.046  0.0000E+00  0.0000E+00  0.1000E-02  0.1000E-02
     -1.004  0.0000E+00  0.0000E+00  0.1000E-02  0.1000E-02
     -0.962  0.0000E+00  0.0000E+00  0.1000E-02  0.1000E-02
     -0.920  0.0000E+00  0.0000E+00  0.1000E-02  0.1000E-02
     -0.878  0.0000E+00  0.0000E+00  0.1000E-02  0.1000E-02
     -0.835  0.0000E+00  0.0000E+00  0.1000E-02  0.1000E-02
     -0.793  0.0000E+00  0.0000E+00  0.1000E-02  0.1000E-02
     -0.751  0.0000E+00  0.0000E+00  0.1000E-02  0.1000E-02
     -0.709  0.0000E+00  0.0000E+00  0.1000E-02  0.1000E-02
     -0.667  0.0000E+00  0.0000E+00  0.1000E-02  0.1000E-02
     -0.625  0.1844E-16  0.1844E-16  0.1000E-02  0.1000E-02
     -0.583  0.1854E-14  0.1854E-14  0.1000E-02  0.1000E-02
     -0.540  0.1363E-12  0.1363E-12  0.1000E-02  0.1000E-02
     -0.498  0.7063E-11  0.7064E-11  0.1000E-02  0.1000E-02
     -0.456  0.2580E-09  0.2581E-09  0.1000E-02  0.1000E-02
     -0.414  0.6650E-08  0.6651E-08  0.1000E-02  0.1000E-02
     -0.372  0.1210E-06  0.1210E-06  0.1000E-02  0.1000E-02
     -0.330  0.1554E-05  0.1555E-05  0.1000E-02  0.1000E-02
     -0.288  0.1412E-04  0.1412E-04  0.1001E-02  0.1001E-02
     -0.245  0.9063E-04  0.9064E-04  0.1004E-02  0.1004E-02
     -0.203  0.4117E-03  0.4117E-03  0.1022E-02  0.1022E-02
     -0.161  0.1324E-02  0.1324E-02  0.1078E-02  0.1078E-02
     -0.119  0.3019E-02  0.3019E-02  0.1205E-02  0.1205E-02
     -0.077  0.4905E-02  0.4905E-02  0.1412E-02  0.1412E-02
     -0.035  0.5799E-02  0.5800E-02  0.1656E-02  0.1656E-02
      0.007  0.5431E-02  0.5431E-02  0.1885E-02  0.1885E-02
      0.049  0.5128E-02  0.5129E-02  0.2101E-02  0.2101E-02
      0.092  0.6206E-02  0.6206E-02  0.2362E-02  0.2362E-02
      0.134  0.8442E-02  0.8443E-02  0.2718E-02  0.2718E-02
      0.176  0.1086E-01  0.1086E-01  0.3176E-02  0.3176E-02
      0.218  0.1301E-01  0.1301E-01  0.3724E-02  0.3724E-02
      0.260  0.1457E-01  0.1457E-01  0.4337E-02  0.4338E-02
      0.302  0.1451E-01  0.1451E-01  0.4949E-02  0.4949E-02
      0.344  0.1194E-01  0.1194E-01  0.5452E-02  0.5452E-02
      0.387  0.7644E-02  0.7643E-02  0.5774E-02  0.5774E-02
      0.429  0.3672E-02  0.3671E-02  0.5929E-02  0.5929E-02
      0.471  0.1295E-02  0.1295E-02  0.5983E-02  0.5983E-02
      0.513  0.3311E-03  0.3311E-03  0.5997E-02  0.5997E-02
      0.555  0.6096E-04  0.6095E-04  0.6000E-02  0.6000E-02
      0.597  0.8039E-05  0.8038E-05  0.6000E-02  0.6000E-02
      0.639  0.7570E-06  0.7569E-06  0.6000E-02  0.6000E-02
      0.682  0.5076E-07  0.5075E-07  0.6000E-02  0.6000E-02
      0.724  0.2418E-08  0.2418E-08  0.6000E-02  0.6000E-02
      0.766  0.8170E-10  0.8168E-10  0.6000E-02  0.6000E-02
      0.808  0.1954E-11  0.1954E-11  0.6000E-02  0.6000E-02
      0.850  0.3306E-13  0.3305E-13  0.6000E-02  0.6000E-02
      0.892  0.3952E-15  0.3952E-15  0.6000E-02  0.6000E-02
      0.934  0.2635E-17  0.2635E-17  0.6000E-02  0.6000E-02
      0.976  0.0000E+00  0.0000E+00  0.6000E-02  0.6000E-02
      1.019  0.0000E+00  0.0000E+00  0.6000E-02  0.6000E-02
      1.061  0.0000E+00  0.0000E+00  0.6000E-02  0.6000E-02
      1.103  0.0000E+00  0.0000E+00  0.6000E-02  0.6000E-02
      1.145  0.0000E+00  0.0000E+00  0.6000E-02  0.6000E-02
      1.187  0.0000E+00  0.0000E+00  0.6000E-02  0.6000E-02
      1.229  0.0000E+00  0.0000E+00  0.6000E-02  0.6000E-02
      1.271  0.0000E+00  0.0000E+00  0.6000E-02  0.6000E-02
      1.314  0.0000E+00  0.0000E+00  0.6000E-02  0.6000E-02
