    2    2 1000    2
  0.4620000E+04  0.2000000E-08  0.2100000E-08  0.2200000E-08  0.3500000E-15
  1.000000000000000E-004
  CAR 
 unknown system                          
      2      1      6
 
  0.0000000E+00  0.0000000E+00  0.0000000E+00  0.1000000E+01
    1      -10.327392    -10.327391   1.000000   1.000000
    2       -0.060706     -0.060708   0.000000   0.000000
    3        0.123194      0.123178   0.000000   0.000000
    4        0.210801      0.210793   0.000000   0.000000
    5        0.281480      0.281479   0.000000   0.000000
    6        0.313560      0.313557   0.000000   0.000000
