       N       E                     dE             d eps       ncg     rms          rms(c)
DAV:   1    -0.203280219249E+01   -0.20328E+01   -0.36178E+02    48   0.999E+01
DAV:   2    -0.736292534314E+01   -0.53301E+01   -0.53301E+01    24   0.351E+01
DAV:   3    -0.746423313092E+01   -0.10131E+00   -0.10131E+00    48   0.634E+00
DAV:   4    -0.746425079265E+01   -0.17662E-04   -0.17662E-04    30   0.924E-02
DAV:   5    -0.746425083813E+01   -0.45482E-07   -0.45483E-07    42   0.439E-03
DAV:   6    -0.746425083815E+01   -0.18773E-10   -0.18344E-10    36   0.748E-05
DAV:   7    -0.746425083815E+01   -0.28422E-13    0.41744E-12    12   0.216E-06
DAV:   8    -0.746425083815E+01    0.00000E+00    0.50981E-12    12   0.782E-07
DAV:   9    -0.746425083815E+01    0.00000E+00    0.50093E-12    12   0.337E-07
DAV:  10    -0.746425083815E+01    0.14211E-13    0.46896E-12    12   0.151E-07    0.457E+00
RMM:  11    -0.700249771447E+01    0.46175E+00   -0.18461E-01    24   0.175E+00    0.251E+00
RMM:  12    -0.675084641554E+01    0.25165E+00   -0.49873E-01    24   0.286E+00    0.304E-01
RMM:  13    -0.675483667137E+01   -0.39903E-02   -0.52595E-03    24   0.311E-01    0.241E-01
RMM:  14    -0.675165269445E+01    0.31840E-02   -0.38432E-03    24   0.242E-01    0.388E-02
RMM:  15    -0.675284476051E+01   -0.11921E-02   -0.14180E-03    24   0.136E-01    0.282E-02
RMM:  16    -0.675337971668E+01   -0.53496E-03   -0.17824E-05    22   0.197E-02    0.124E-02
RMM:  17    -0.675530960539E+01   -0.19299E-02   -0.43709E-04    24   0.782E-02    0.862E-03
RMM:  18    -0.675561261508E+01   -0.30301E-03   -0.30617E-05    22   0.200E-02    0.916E-03
RMM:  19    -0.675577032367E+01   -0.15771E-03   -0.13413E-05    22   0.129E-02    0.247E-03
RMM:  20    -0.675583461960E+01   -0.64296E-04    0.00000E+00    20   0.443E-03
   1 F= -.67558346E+01 E0= -.67558346E+01  d E =-.675583E+01  mag=     0.0000
       N       E                     dE             d eps       ncg     rms          rms(c)
DAV:   1    -0.675455276840E+01    0.12176E-02   -0.32741E-01    24   0.360E+00    0.281E-01
RMM:   2    -0.675331471471E+01    0.12381E-02   -0.16956E-03    24   0.230E-01    0.151E-01
RMM:   3    -0.675298546480E+01    0.32925E-03   -0.12640E-03    24   0.132E-01    0.111E-02
RMM:   4    -0.675302021377E+01   -0.34749E-04   -0.16539E-05    22   0.165E-02
   2 F= -.67530202E+01 E0= -.67530202E+01  d E =0.281441E-02  mag=    -0.0000
       N       E                     dE             d eps       ncg     rms          rms(c)
DAV:   1    -0.675968712578E+01   -0.67017E-02   -0.11057E-01    24   0.207E+00    0.160E-01
RMM:   2    -0.675929879596E+01    0.38833E-03   -0.48258E-04    24   0.129E-01    0.887E-02
RMM:   3    -0.675918883913E+01    0.10996E-03   -0.45956E-04    24   0.795E-02    0.652E-03
RMM:   4    -0.675919602370E+01   -0.71846E-05   -0.35085E-06    22   0.816E-03
   3 F= -.67591960E+01 E0= -.67591960E+01  d E =-.336140E-02  mag=    -0.0000
