<?xml version="1.0" encoding="ISO-8859-1"?>
<modeling>
 <generator>
  <i name="program" type="string">vasp </i>
  <i name="version" type="string">5.4.1  </i>
  <i name="subversion" type="string">24Jun15 (build Oct 10 2016 12:42:00) complex                          parallel </i>
  <i name="platform" type="string">IFC91_ompi </i>
  <i name="date" type="string">2017 08 01 </i>
  <i name="time" type="string">21:51:26 </i>
 </generator>
 <incar>
  <i type="int" name="ISTART">     0</i>
  <i type="string" name="PREC">high</i>
  <i type="string" name="ALGO"> fast</i>
  <i type="int" name="ISPIN">     2</i>
  <i type="int" name="NELM">   400</i>
  <i type="int" name="NELMDL">   -10</i>
  <i type="int" name="IBRION">     2</i>
  <i type="int" name="NFREE">     2</i>
  <i name="EDIFF">      0.00010000</i>
  <i name="EDIFFG">     -0.05000000</i>
  <i type="int" name="NSW">  1000</i>
  <i type="int" name="ISIF">     2</i>
  <i type="int" name="ISYM">     0</i>
  <i name="ENCUT">    400.00000000</i>
  <i name="POTIM">      0.35000000</i>
  <v name="MAGMOM">      0.00000000      0.00000000</v>
  <i type="string" name="LREAL"> auto</i>
  <v name="ROPT">     -0.00020000      0.00000000      0.00000000</v>
  <i type="logical" name="LPLANE"> T  </i>
  <i type="int" name="ISMEAR">     0</i>
  <i name="SIGMA">      0.10000000</i>
  <i type="logical" name="LWAVE"> F  </i>
  <i type="logical" name="LCHARG"> F  </i>
  <i type="logical" name="LVTOT"> F  </i>
  <v type="int" name="KPOINT_BSE">    -1     0     0     0</v>
  <i type="int" name="NELM">   400</i>
  <i type="string" name="GGA"> PE</i>
 </incar>
 <kpoints>
  <generation param="Gamma">
   <v type="int" name="divisions">       1        1        1 </v>
   <v name="usershift">      0.00000000       0.00000000       0.00000000 </v>
   <v name="genvec1">      1.00000000       0.00000000       0.00000000 </v>
   <v name="genvec2">      0.00000000       1.00000000       0.00000000 </v>
   <v name="genvec3">      0.00000000       0.00000000       1.00000000 </v>
   <v name="shift">      0.00000000       0.00000000       0.00000000 </v>
  </generation>
  <varray name="kpointlist" >
   <v>       0.00000000       0.00000000       0.00000000 </v>
  </varray>
  <varray name="weights" >
   <v>       1.00000000 </v>
  </varray>
 </kpoints>
 <parameters>
  <separator name="general" >
   <i type="string" name="SYSTEM">unknown system</i>
   <i type="logical" name="LCOMPAT"> F  </i>
  </separator>
  <separator name="electronic" >
   <i type="string" name="PREC">high</i>
   <i name="ENMAX">    400.00000000</i>
   <i name="ENAUG">    400.00000000</i>
   <i name="EDIFF">      0.00010000</i>
   <i type="int" name="IALGO">    68</i>
   <i type="int" name="IWAVPR">    11</i>
   <i type="int" name="NBANDS">     6</i>
   <i name="NELECT">      2.00000000</i>
   <i type="int" name="TURBO">     0</i>
   <i type="int" name="IRESTART">     0</i>
   <i type="int" name="NREBOOT">     0</i>
   <i type="int" name="NMIN">     0</i>
   <i name="EREF">      0.00000000</i>
   <separator name="electronic smearing" >
    <i type="int" name="ISMEAR">     0</i>
    <i name="SIGMA">      0.10000000</i>
    <i name="KSPACING">      0.50000000</i>
    <i type="logical" name="KGAMMA"> T  </i>
   </separator>
   <separator name="electronic projectors" >
    <i type="logical" name="LREAL"> T  </i>
    <v name="ROPT">     -0.00020000</v>
    <i type="int" name="LMAXPAW">  -100</i>
    <i type="int" name="LMAXMIX">     2</i>
    <i type="logical" name="NLSPLINE"> F  </i>
   </separator>
   <separator name="electronic startup" >
    <i type="int" name="ISTART">     0</i>
    <i type="int" name="ICHARG">     2</i>
    <i type="int" name="INIWAV">     1</i>
   </separator>
   <separator name="electronic spin" >
    <i type="int" name="ISPIN">     2</i>
    <i type="logical" name="LNONCOLLINEAR"> F  </i>
    <v name="MAGMOM">      0.00000000      0.00000000</v>
    <i name="NUPDOWN">     -1.00000000</i>
    <i type="logical" name="LSORBIT"> F  </i>
    <v name="SAXIS">      0.00000000      0.00000000      1.00000000</v>
    <i type="logical" name="LSPIRAL"> F  </i>
    <v name="QSPIRAL">      0.00000000      0.00000000      0.00000000</v>
    <i type="logical" name="LZEROZ"> F  </i>
   </separator>
   <separator name="electronic exchange-correlation" >
    <i type="logical" name="LASPH"> F  </i>
    <i type="logical" name="LMETAGGA"> F  </i>
   </separator>
   <separator name="electronic convergence" >
    <i type="int" name="NELM">   400</i>
    <i type="int" name="NELMDL">   -10</i>
    <i type="int" name="NELMIN">     2</i>
    <i name="ENINI">    400.00000000</i>
    <separator name="electronic convergence detail" >
     <i type="logical" name="LDIAG"> T  </i>
     <i type="logical" name="LSUBROT"> F  </i>
     <i name="WEIMIN">      0.00100000</i>
     <i name="EBREAK">      0.00000417</i>
     <i name="DEPER">      0.30000000</i>
     <i type="int" name="NRMM">     4</i>
     <i name="TIME">      0.40000000</i>
    </separator>
   </separator>
   <separator name="electronic mixer" >
    <i name="AMIX">      0.40000000</i>
    <i name="BMIX">      1.00000000</i>
    <i name="AMIN">      0.10000000</i>
    <i name="AMIX_MAG">      1.60000000</i>
    <i name="BMIX_MAG">      1.00000000</i>
    <separator name="electronic mixer details" >
     <i type="int" name="IMIX">     4</i>
     <i type="logical" name="MIXFIRST"> F  </i>
     <i type="int" name="MAXMIX">   -45</i>
     <i name="WC">    100.00000000</i>
     <i type="int" name="INIMIX">     1</i>
     <i type="int" name="MIXPRE">     1</i>
     <i type="int" name="MREMOVE">     5</i>
    </separator>
   </separator>
   <separator name="electronic dipolcorrection" >
    <i type="logical" name="LDIPOL"> F  </i>
    <i type="logical" name="LMONO"> F  </i>
    <i type="int" name="IDIPOL">     0</i>
    <i name="EPSILON">      1.00000000</i>
    <v name="DIPOL">   -100.00000000   -100.00000000   -100.00000000</v>
    <i name="EFIELD">      0.00000000</i>
   </separator>
  </separator>
  <separator name="grids" >
   <i type="int" name="NGX">   140</i>
   <i type="int" name="NGY">   140</i>
   <i type="int" name="NGZ">   144</i>
   <i type="int" name="NGXF">   180</i>
   <i type="int" name="NGYF">   192</i>
   <i type="int" name="NGZF">   192</i>
   <i type="logical" name="ADDGRID"> F  </i>
  </separator>
  <separator name="ionic" >
   <i type="int" name="NSW">  1000</i>
   <i type="int" name="IBRION">     2</i>
   <i type="int" name="ISIF">     2</i>
   <i name="PSTRESS">      0.00000000</i>
   <i name="EDIFFG">     -0.05000000</i>
   <i type="int" name="NFREE">     2</i>
   <i name="POTIM">      0.35000000</i>
   <i name="SMASS">     -3.00000000</i>
   <i name="SCALEE">      1.00000000</i>
  </separator>
  <separator name="ionic md" >
   <i name="TEBEG">      0.00010000</i>
   <i name="TEEND">      0.00010000</i>
   <i type="int" name="NBLOCK">     1</i>
   <i type="int" name="KBLOCK">  1000</i>
   <i type="int" name="NPACO">   256</i>
   <i name="APACO">     16.00000000</i>
  </separator>
  <separator name="symmetry" >
   <i type="int" name="ISYM">     0</i>
   <i name="SYMPREC">      0.00001000</i>
  </separator>
  <separator name="dos" >
   <i type="logical" name="LORBIT"> F  </i>
   <v name="RWIGS">     -1.00000000</v>
   <i type="int" name="NEDOS">   301</i>
   <i name="EMIN">     10.00000000</i>
   <i name="EMAX">    -10.00000000</i>
   <i name="EFERMI">      0.00000000</i>
  </separator>
  <separator name="writing" >
   <i type="int" name="NWRITE">     2</i>
   <i type="logical" name="LWAVE"> F  </i>
   <i type="logical" name="LCHARG"> F  </i>
   <i type="logical" name="LPARD"> F  </i>
   <i type="logical" name="LVTOT"> F  </i>
   <i type="logical" name="LVHAR"> F  </i>
   <i type="logical" name="LELF"> F  </i>
   <i type="logical" name="LOPTICS"> F  </i>
   <v name="STM">      0.00000000      0.00000000      0.00000000      0.00000000      0.00000000      0.00000000      0.00000000</v>
  </separator>
  <separator name="performance" >
   <i type="int" name="NPAR">     2</i>
   <i type="int" name="NSIM">     4</i>
   <i type="int" name="NBLK">    -1</i>
   <i type="logical" name="LPLANE"> T  </i>
   <i type="logical" name="LSCALAPACK"> T  </i>
   <i type="logical" name="LSCAAWARE"> F  </i>
   <i type="logical" name="LSCALU"> F  </i>
   <i type="logical" name="LASYNC"> F  </i>
   <i type="logical" name="LORBITALREAL"> F  </i>
  </separator>
  <separator name="miscellaneous" >
   <i type="int" name="IDIOT">     3</i>
   <i type="logical" name="LMUSIC"> F  </i>
   <v name="POMASS">      1.00000000</v>
   <v name="DARWINR">      0.00000000</v>
   <v name="DARWINV">      1.00000000</v>
   <i type="logical" name="LCORR"> T  </i>
  </separator>
  <i type="logical" name="GGA_COMPAT"> T  </i>
  <i type="logical" name="LBERRY"> F  </i>
  <i type="int" name="ICORELEVEL">     0</i>
  <i type="logical" name="LDAU"> F  </i>
  <i type="int" name="I_CONSTRAINED_M">     0</i>
  <separator name="electronic exchange-correlation" >
   <i type="string" name="GGA">PE</i>
   <i type="int" name="VOSKOWN">     0</i>
   <i type="logical" name="LHFCALC"> F  </i>
   <i type="string" name="PRECFOCK"></i>
   <i type="logical" name="LSYMGRAD"> F  </i>
   <i type="logical" name="LHFONE"> F  </i>
   <i type="logical" name="LRHFCALC"> F  </i>
   <i type="logical" name="LTHOMAS"> F  </i>
   <i type="logical" name="LMODELHF"> F  </i>
   <i name="ENCUT4O">     -1.00000000</i>
   <i type="int" name="EXXOEP">     0</i>
   <i type="int" name="FOURORBIT">     0</i>
   <i name="AEXX">      0.00000000</i>
   <i name="HFALPHA">      0.00000000</i>
   <i name="MCALPHA">      0.00000000</i>
   <i name="ALDAX">      1.00000000</i>
   <i name="AGGAX">      1.00000000</i>
   <i name="ALDAC">      1.00000000</i>
   <i name="AGGAC">      1.00000000</i>
   <i type="int" name="NKREDX">     1</i>
   <i type="int" name="NKREDY">     1</i>
   <i type="int" name="NKREDZ">     1</i>
   <i type="logical" name="SHIFTRED"> F  </i>
   <i type="logical" name="ODDONLY"> F  </i>
   <i type="logical" name="EVENONLY"> F  </i>
   <i type="int" name="LMAXFOCK">     0</i>
   <i type="int" name="NMAXFOCKAE">     0</i>
   <i type="logical" name="LFOCKAEDFT"> F  </i>
   <i name="HFSCREEN">      0.00000000</i>
   <i name="HFSCREENC">      0.00000000</i>
   <i type="int" name="NBANDSGWLOW">     0</i>
  </separator>
  <separator name="vdW DFT" >
   <i type="logical" name="LUSE_VDW"> F  </i>
   <i name="Zab_VDW">     -0.84910000</i>
   <i name="PARAM1">      0.12340000</i>
   <i name="PARAM2">      1.00000000</i>
   <i name="PARAM3">      0.00000000</i>
  </separator>
  <separator name="model GW" >
   <i type="int" name="MODEL_GW">     0</i>
   <i name="MODEL_EPS0">   2772.00000000</i>
   <i name="MODEL_ALPHA">      1.00000000</i>
  </separator>
  <separator name="linear response parameters" >
   <i type="logical" name="LEPSILON"> F  </i>
   <i type="logical" name="LRPA"> F  </i>
   <i type="logical" name="LNABLA"> F  </i>
   <i type="logical" name="LVEL"> F  </i>
   <i type="int" name="KINTER">     0</i>
   <i name="CSHIFT">      0.10000000</i>
   <i name="OMEGAMAX">     -1.00000000</i>
   <i name="DEG_THRESHOLD">      0.00200000</i>
  </separator>
  <separator name="orbital magnetization" >
   <i type="logical" name="NUCIND"> F  </i>
   <v name="MAGPOS">      0.00000000      0.00000000      0.00000000</v>
   <i type="logical" name="LNICSALL"> T  </i>
   <i type="logical" name="ORBITALMAG"> F  </i>
   <i type="logical" name="LMAGBLOCH"> F  </i>
   <i type="logical" name="LCHIMAG"> F  </i>
   <i type="logical" name="LGAUGE"> T  </i>
   <i type="int" name="MAGATOM">     0</i>
   <v name="MAGDIPOL">      0.00000000      0.00000000      0.00000000</v>
   <v name="AVECCONST">      0.00000000      0.00000000      0.00000000</v>
  </separator>
  <separator name="response functions" >
   <i type="logical" name="LADDER"> F  </i>
   <i type="logical" name="LFXC"> F  </i>
   <i type="logical" name="LHARTREE"> T  </i>
   <i type="int" name="IBSE">     0</i>
   <v type="int" name="KPOINT">    -1     0     0     0</v>
   <i type="logical" name="LTCTE"> F  </i>
   <i type="logical" name="LTETE"> F  </i>
   <i type="logical" name="LTRIPLET"> F  </i>
   <i type="logical" name="LFXCEPS"> F  </i>
   <i type="logical" name="LFXHEG"> F  </i>
   <i type="int" name="NATURALO">     0</i>
   <i type="logical" name="L2ORDER"> F  </i>
   <i type="logical" name="LUSEW"> F  </i>
   <i name="ENCUTGW">     -2.00000000</i>
   <i name="ENCUTGWSOFT">     -2.00000000</i>
   <i name="ENCUTLF">     -1.00000000</i>
   <i type="int" name="LMAXMP2">    -1</i>
   <i name="SCISSOR">      0.00000000</i>
   <i type="int" name="NOMEGA">     0</i>
   <i type="int" name="NOMEGAR">     0</i>
   <i type="int" name="NBANDSGW">    -1</i>
   <i type="int" name="NBANDSO">    -1</i>
   <i type="int" name="NBANDSV">    -1</i>
   <i type="int" name="NELM">   400</i>
   <i type="int" name="NELMHF">     1</i>
   <i type="int" name="DIM">     3</i>
   <i type="int" name="ANTIRES">     0</i>
   <i name="OMEGAMAX">    -30.00000000</i>
   <i name="OMEGAMIN">    -30.00000000</i>
   <i name="OMEGATL">   -200.00000000</i>
   <i type="int" name="OMEGAGRID">     0</i>
   <i name="CSHIFT">     -0.10000000</i>
   <i type="logical" name="SELFENERGY"> F  </i>
   <i type="logical" name="LSPECTRAL"> F  </i>
   <i type="logical" name="LSPECTRALGW"> F  </i>
   <i type="logical" name="LSINGLES"> F  </i>
   <i type="logical" name="LFERMIGW"> F  </i>
   <i type="logical" name="ODDONLYGW"> F  </i>
   <i type="logical" name="EVENONLYGW"> F  </i>
   <i type="int" name="NKREDLFX">     1</i>
   <i type="int" name="NKREDLFY">     1</i>
   <i type="int" name="NKREDLFZ">     1</i>
   <i type="int" name="MAXMEM">  1800</i>
   <i type="int" name="TELESCOPE">     0</i>
   <i type="int" name="TAUPAR">     1</i>
   <i type="int" name="OMEGAPAR">    -1</i>
   <i name="LAMBDA">      1.00000000</i>
  </separator>
  <separator name="External order field" >
   <i name="OFIELD_KAPPA">      0.00000000</i>
   <v name="OFIELD_K">      0.00000000      0.00000000      0.00000000</v>
   <i name="OFIELD_Q6_NEAR">      0.00000000</i>
   <i name="OFIELD_Q6_FAR">      0.00000000</i>
   <i name="OFIELD_A">      0.00000000</i>
  </separator>
 </parameters>
 <atominfo>
  <atoms>       2 </atoms>
  <types>       1 </types>
  <array name="atoms" >
   <dimension dim="1">ion</dimension>
   <field type="string">element</field>
   <field type="int">atomtype</field>
   <set>
    <rc><c>H </c><c>   1</c></rc>
    <rc><c>H </c><c>   1</c></rc>
   </set>
  </array>
  <array name="atomtypes" >
   <dimension dim="1">type</dimension>
   <field type="int">atomspertype</field>
   <field type="string">element</field>
   <field>mass</field>
   <field>valence</field>
   <field type="string">pseudopotential</field>
   <set>
    <rc><c>   2</c><c>H </c><c>      1.00000000</c><c>      1.00000000</c><c>  PAW_PBE H 15Jun2001                   </c></rc>
   </set>
  </array>
 </atominfo>
 <structure name="initialpos" >
  <crystal>
   <varray name="basis" >
    <v>      20.00000000       0.00000000       0.00000000 </v>
    <v>       0.00000000      21.00000000       0.00000000 </v>
    <v>       0.00000000       0.00000000      22.00000000 </v>
   </varray>
   <i name="volume">   9240.00000000 </i>
   <varray name="rec_basis" >
    <v>       0.05000000       0.00000000       0.00000000 </v>
    <v>       0.00000000       0.04761905       0.00000000 </v>
    <v>       0.00000000       0.00000000       0.04545455 </v>
   </varray>
  </crystal>
  <varray name="positions" >
   <v>       0.50000000       0.50000000       0.51675377 </v>
   <v>       0.50000000       0.50000000       0.48324623 </v>
  </varray>
 </structure>
 <calculation>
  <scstep>
   <time name="dav">    1.38    1.38</time>
   <time name="total">    2.42    2.44</time>
   <energy>
    <i name="alphaZ">      0.00105462 </i>
    <i name="ewald">     15.65034103 </i>
    <i name="hartreedc">    -24.85980444 </i>
    <i name="XCdc">      4.35838452 </i>
    <i name="pawpsdc">      4.26805487 </i>
    <i name="pawaedc">     -4.28581044 </i>
    <i name="eentropy">     -0.00000000 </i>
    <i name="bandstr">    -22.12228768 </i>
    <i name="atom">     24.95726533 </i>
    <i name="e_fr_energy">     -2.03280219 </i>
    <i name="e_wo_entrp">     -2.03280219 </i>
    <i name="e_0_energy">     -2.03280219 </i>
   </energy>
  </scstep>
  <scstep>
   <time name="dav">    0.75    0.75</time>
   <time name="total">    0.75    0.78</time>
   <energy>
    <i name="e_fr_energy">     -7.36292534 </i>
    <i name="e_wo_entrp">     -7.36292534 </i>
    <i name="e_0_energy">     -7.36292534 </i>
   </energy>
  </scstep>
  <scstep>
   <time name="dav">    1.44    1.44</time>
   <time name="total">    1.44    1.47</time>
   <energy>
    <i name="e_fr_energy">     -7.46423313 </i>
    <i name="e_wo_entrp">     -7.46423313 </i>
    <i name="e_0_energy">     -7.46423313 </i>
   </energy>
  </scstep>
  <scstep>
   <time name="dav">    0.91    0.91</time>
   <time name="total">    0.91    0.94</time>
   <energy>
    <i name="e_fr_energy">     -7.46425079 </i>
    <i name="e_wo_entrp">     -7.46425079 </i>
    <i name="e_0_energy">     -7.46425079 </i>
   </energy>
  </scstep>
  <scstep>
   <time name="dav">    1.27    1.27</time>
   <time name="total">    1.27    1.29</time>
   <energy>
    <i name="e_fr_energy">     -7.46425084 </i>
    <i name="e_wo_entrp">     -7.46425084 </i>
    <i name="e_0_energy">     -7.46425084 </i>
   </energy>
  </scstep>
  <scstep>
   <time name="dav">    1.09    1.09</time>
   <time name="total">    1.09    1.11</time>
   <energy>
    <i name="e_fr_energy">     -7.46425084 </i>
    <i name="e_wo_entrp">     -7.46425084 </i>
    <i name="e_0_energy">     -7.46425084 </i>
   </energy>
  </scstep>
  <scstep>
   <time name="dav">    0.47    0.48</time>
   <time name="total">    0.48    0.50</time>
   <energy>
    <i name="e_fr_energy">     -7.46425084 </i>
    <i name="e_wo_entrp">     -7.46425084 </i>
    <i name="e_0_energy">     -7.46425084 </i>
   </energy>
  </scstep>
  <scstep>
   <time name="dav">    0.48    0.48</time>
   <time name="total">    0.48    0.50</time>
   <energy>
    <i name="e_fr_energy">     -7.46425084 </i>
    <i name="e_wo_entrp">     -7.46425084 </i>
    <i name="e_0_energy">     -7.46425084 </i>
   </energy>
  </scstep>
  <scstep>
   <time name="dav">    0.53    0.53</time>
   <time name="total">    0.53    0.55</time>
   <energy>
    <i name="e_fr_energy">     -7.46425084 </i>
    <i name="e_wo_entrp">     -7.46425084 </i>
    <i name="e_0_energy">     -7.46425084 </i>
   </energy>
  </scstep>
  <scstep>
   <time name="dav">    0.48    0.48</time>
   <time name="total">    0.71    0.74</time>
   <energy>
    <i name="e_fr_energy">     -7.46425084 </i>
    <i name="e_wo_entrp">     -7.46425084 </i>
    <i name="e_0_energy">     -7.46425084 </i>
   </energy>
  </scstep>
  <scstep>
   <time name="diag">    0.19    0.19</time>
   <time name="diis">    0.72    0.73</time>
   <time name="orth">    0.00    0.00</time>
   <time name="total">    5.42    6.00</time>
   <energy>
    <i name="e_fr_energy">     -7.00249771 </i>
    <i name="e_wo_entrp">     -7.00249771 </i>
    <i name="e_0_energy">     -7.00249771 </i>
   </energy>
  </scstep>
  <scstep>
   <time name="diag">    0.18    0.18</time>
   <time name="diis">    0.72    0.72</time>
   <time name="orth">    0.01    0.00</time>
   <time name="total">    2.11    2.13</time>
   <energy>
    <i name="e_fr_energy">     -6.75084642 </i>
    <i name="e_wo_entrp">     -6.75084642 </i>
    <i name="e_0_energy">     -6.75084642 </i>
   </energy>
  </scstep>
  <scstep>
   <time name="diag">    0.18    0.18</time>
   <time name="diis">    0.72    0.72</time>
   <time name="orth">    0.02    0.02</time>
   <time name="total">    2.20    2.22</time>
   <energy>
    <i name="e_fr_energy">     -6.75483667 </i>
    <i name="e_wo_entrp">     -6.75483667 </i>
    <i name="e_0_energy">     -6.75483667 </i>
   </energy>
  </scstep>
  <scstep>
   <time name="diag">    0.18    0.18</time>
   <time name="diis">    0.70    0.70</time>
   <time name="orth">    0.00    0.00</time>
   <time name="total">    2.15    2.17</time>
   <energy>
    <i name="e_fr_energy">     -6.75165269 </i>
    <i name="e_wo_entrp">     -6.75165269 </i>
    <i name="e_0_energy">     -6.75165269 </i>
   </energy>
  </scstep>
  <scstep>
   <time name="diag">    0.12    0.23</time>
   <time name="diis">    0.70    0.70</time>
   <time name="orth">    0.00    0.00</time>
   <time name="total">    2.02    2.18</time>
   <energy>
    <i name="e_fr_energy">     -6.75284476 </i>
    <i name="e_wo_entrp">     -6.75284476 </i>
    <i name="e_0_energy">     -6.75284476 </i>
   </energy>
  </scstep>
  <scstep>
   <time name="diag">    0.18    0.18</time>
   <time name="diis">    0.59    0.67</time>
   <time name="orth">    0.00    0.00</time>
   <time name="total">    1.88    2.09</time>
   <energy>
    <i name="e_fr_energy">     -6.75337972 </i>
    <i name="e_wo_entrp">     -6.75337972 </i>
    <i name="e_0_energy">     -6.75337972 </i>
   </energy>
  </scstep>
  <scstep>
   <time name="diag">    0.18    0.18</time>
   <time name="diis">    0.64    0.74</time>
   <time name="orth">    0.00    0.00</time>
   <time name="total">    2.10    2.25</time>
   <energy>
    <i name="e_fr_energy">     -6.75530961 </i>
    <i name="e_wo_entrp">     -6.75530961 </i>
    <i name="e_0_energy">     -6.75530961 </i>
   </energy>
  </scstep>
  <scstep>
   <time name="diag">    0.18    0.18</time>
   <time name="diis">    0.66    0.66</time>
   <time name="orth">    0.00    0.00</time>
   <time name="total">    2.16    2.18</time>
   <energy>
    <i name="e_fr_energy">     -6.75561262 </i>
    <i name="e_wo_entrp">     -6.75561262 </i>
    <i name="e_0_energy">     -6.75561262 </i>
   </energy>
  </scstep>
  <scstep>
   <time name="diag">    0.18    0.18</time>
   <time name="diis">    0.66    0.66</time>
   <time name="orth">    0.01    0.01</time>
   <time name="total">    2.17    2.19</time>
   <energy>
    <i name="e_fr_energy">     -6.75577032 </i>
    <i name="e_wo_entrp">     -6.75577032 </i>
    <i name="e_0_energy">     -6.75577032 </i>
   </energy>
  </scstep>
  <scstep>
   <time name="diag">    0.18    0.25</time>
   <time name="diis">    0.63    0.63</time>
   <time name="orth">    0.00    0.00</time>
   <time name="total">    1.85    1.96</time>
   <energy>
    <i name="alphaZ">      0.00105462 </i>
    <i name="ewald">     15.65034103 </i>
    <i name="hartreedc">    -31.85846852 </i>
    <i name="XCdc">      5.33034105 </i>
    <i name="pawpsdc">     25.53642322 </i>
    <i name="pawaedc">    -25.58702606 </i>
    <i name="eentropy">     -0.00000000 </i>
    <i name="bandstr">    -20.78576529 </i>
    <i name="atom">     24.95726533 </i>
    <i name="e_fr_energy">     -6.75583462 </i>
    <i name="e_wo_entrp">     -6.75583462 </i>
    <i name="e_0_energy">     -6.75583462 </i>
   </energy>
  </scstep>
  <structure>
   <crystal>
    <varray name="basis" >
     <v>      20.00000000       0.00000000       0.00000000 </v>
     <v>       0.00000000      21.00000000       0.00000000 </v>
     <v>       0.00000000       0.00000000      22.00000000 </v>
    </varray>
    <i name="volume">   9240.00000000 </i>
    <varray name="rec_basis" >
     <v>       0.05000000       0.00000000       0.00000000 </v>
     <v>       0.00000000       0.04761905       0.00000000 </v>
     <v>       0.00000000       0.00000000       0.04545455 </v>
    </varray>
   </crystal>
   <varray name="positions" >
    <v>       0.50000000       0.50000000       0.51675377 </v>
    <v>       0.50000000       0.50000000       0.48324623 </v>
   </varray>
  </structure>
  <varray name="forces" >
   <v>       0.00000001      -0.00000000       0.49127091 </v>
   <v>      -0.00000001       0.00000000      -0.49127091 </v>
  </varray>
  <varray name="stress" >
   <v>      -0.02105469       0.00000000      -0.00000000 </v>
   <v>       0.00000000      -0.02117784       0.00000000 </v>
   <v>      -0.00000000       0.00000000       0.03603809 </v>
  </varray>
  <energy>
   <i name="e_fr_energy">     -6.75583462 </i>
   <i name="e_wo_entrp">     -6.75583462 </i>
   <i name="e_0_energy">     -0.00000000 </i>
  </energy>
  <time name="totalsc">   37.29   38.96</time>
 </calculation>
 <calculation>
  <scstep>
   <time name="dav">    0.86    0.86</time>
   <time name="total">    2.11    2.12</time>
   <energy>
    <i name="alphaZ">      0.00105462 </i>
    <i name="ewald">     14.80910395 </i>
    <i name="hartreedc">    -31.57420411 </i>
    <i name="XCdc">      5.29526636 </i>
    <i name="pawpsdc">     25.52914215 </i>
    <i name="pawaedc">    -25.57973341 </i>
    <i name="eentropy">     -0.00000000 </i>
    <i name="bandstr">    -20.19244766 </i>
    <i name="atom">     24.95726533 </i>
    <i name="e_fr_energy">     -6.75455277 </i>
    <i name="e_wo_entrp">     -6.75455277 </i>
    <i name="e_0_energy">     -6.75455277 </i>
   </energy>
  </scstep>
  <scstep>
   <time name="diag">    0.21    0.21</time>
   <time name="diis">    0.75    0.75</time>
   <time name="orth">    0.00    0.00</time>
   <time name="total">    2.26    2.28</time>
   <energy>
    <i name="e_fr_energy">     -6.75331471 </i>
    <i name="e_wo_entrp">     -6.75331471 </i>
    <i name="e_0_energy">     -6.75331471 </i>
   </energy>
  </scstep>
  <scstep>
   <time name="diag">    0.20    0.20</time>
   <time name="diis">    0.75    0.75</time>
   <time name="orth">    0.00    0.00</time>
   <time name="total">    2.21    2.23</time>
   <energy>
    <i name="e_fr_energy">     -6.75298546 </i>
    <i name="e_wo_entrp">     -6.75298546 </i>
    <i name="e_0_energy">     -6.75298546 </i>
   </energy>
  </scstep>
  <scstep>
   <time name="diag">    0.20    0.20</time>
   <time name="diis">    0.75    0.75</time>
   <time name="orth">    0.10    0.10</time>
   <time name="total">    2.19    2.21</time>
   <energy>
    <i name="alphaZ">      0.00105462 </i>
    <i name="ewald">     14.80910395 </i>
    <i name="hartreedc">    -31.25909338 </i>
    <i name="XCdc">      5.25101456 </i>
    <i name="pawpsdc">     23.29390116 </i>
    <i name="pawaedc">    -23.34013805 </i>
    <i name="eentropy">     -0.00000000 </i>
    <i name="bandstr">    -20.46612840 </i>
    <i name="atom">     24.95726533 </i>
    <i name="e_fr_energy">     -6.75302021 </i>
    <i name="e_wo_entrp">     -6.75302021 </i>
    <i name="e_0_energy">     -6.75302021 </i>
   </energy>
  </scstep>
  <structure>
   <crystal>
    <varray name="basis" >
     <v>      20.00000000       0.00000000       0.00000000 </v>
     <v>       0.00000000      21.00000000       0.00000000 </v>
     <v>       0.00000000       0.00000000      22.00000000 </v>
    </varray>
    <i name="volume">   9240.00000000 </i>
    <varray name="rec_basis" >
     <v>       0.05000000       0.00000000       0.00000000 </v>
     <v>       0.00000000       0.04761905       0.00000000 </v>
     <v>       0.00000000       0.00000000       0.04545455 </v>
    </varray>
   </crystal>
   <varray name="positions" >
    <v>       0.50000000       0.50000000       0.51750787 </v>
    <v>       0.50000000       0.50000000       0.48249213 </v>
   </varray>
  </structure>
  <varray name="forces" >
   <v>       0.00000001      -0.00000000      -0.61958484 </v>
   <v>      -0.00000001       0.00000000       0.61958484 </v>
  </varray>
  <varray name="stress" >
   <v>      -0.02042482      -0.00000000       0.00000000 </v>
   <v>      -0.00000000      -0.02052049      -0.00000000 </v>
   <v>       0.00000000      -0.00000000      -0.10972548 </v>
  </varray>
  <energy>
   <i name="e_fr_energy">     -6.75302021 </i>
   <i name="e_wo_entrp">     -6.75302021 </i>
   <i name="e_0_energy">     -0.00000000 </i>
  </energy>
  <time name="totalsc">   11.81   12.04</time>
 </calculation>
 <calculation>
  <scstep>
   <time name="dav">    0.92    0.93</time>
   <time name="total">    2.38    2.45</time>
   <energy>
    <i name="alphaZ">      0.00105462 </i>
    <i name="ewald">     15.29207829 </i>
    <i name="hartreedc">    -31.42275542 </i>
    <i name="XCdc">      5.27133159 </i>
    <i name="pawpsdc">     23.25952524 </i>
    <i name="pawaedc">    -23.30574795 </i>
    <i name="eentropy">     -0.00000000 </i>
    <i name="bandstr">    -20.81243882 </i>
    <i name="atom">     24.95726533 </i>
    <i name="e_fr_energy">     -6.75968713 </i>
    <i name="e_wo_entrp">     -6.75968713 </i>
    <i name="e_0_energy">     -6.75968713 </i>
   </energy>
  </scstep>
  <scstep>
   <time name="diag">    0.22    0.22</time>
   <time name="diis">    0.76    0.76</time>
   <time name="orth">    0.00    0.00</time>
   <time name="total">    2.31    2.34</time>
   <energy>
    <i name="e_fr_energy">     -6.75929880 </i>
    <i name="e_wo_entrp">     -6.75929880 </i>
    <i name="e_0_energy">     -6.75929880 </i>
   </energy>
  </scstep>
  <scstep>
   <time name="diag">    0.20    0.20</time>
   <time name="diis">    0.74    0.77</time>
   <time name="orth">    0.00    0.00</time>
   <time name="total">    2.28    2.33</time>
   <energy>
    <i name="e_fr_energy">     -6.75918884 </i>
    <i name="e_wo_entrp">     -6.75918884 </i>
    <i name="e_0_energy">     -6.75918884 </i>
   </energy>
  </scstep>
  <scstep>
   <time name="diag">    0.20    0.20</time>
   <time name="diis">    0.67    0.67</time>
   <time name="orth">    0.00    0.00</time>
   <time name="total">    1.95    2.01</time>
   <energy>
    <i name="alphaZ">      0.00105462 </i>
    <i name="ewald">     15.29207829 </i>
    <i name="hartreedc">    -31.60288664 </i>
    <i name="XCdc">      5.29674253 </i>
    <i name="pawpsdc">     24.52879132 </i>
    <i name="pawaedc">    -24.57745886 </i>
    <i name="eentropy">     -0.00000000 </i>
    <i name="bandstr">    -20.65478261 </i>
    <i name="atom">     24.95726533 </i>
    <i name="e_fr_energy">     -6.75919602 </i>
    <i name="e_wo_entrp">     -6.75919602 </i>
    <i name="e_0_energy">     -6.75919602 </i>
   </energy>
  </scstep>
  <structure>
   <crystal>
    <varray name="basis" >
     <v>      20.00000000       0.00000000       0.00000000 </v>
     <v>       0.00000000      21.00000000       0.00000000 </v>
     <v>       0.00000000       0.00000000      22.00000000 </v>
    </varray>
    <i name="volume">   9240.00000000 </i>
    <varray name="rec_basis" >
     <v>       0.05000000       0.00000000       0.00000000 </v>
     <v>       0.00000000       0.04761905       0.00000000 </v>
     <v>       0.00000000       0.00000000       0.04545455 </v>
    </varray>
   </crystal>
   <varray name="positions" >
    <v>       0.50000000       0.50000000       0.51706683 </v>
    <v>       0.50000000       0.50000000       0.48293317 </v>
   </varray>
  </structure>
  <varray name="forces" >
   <v>      -0.00000001       0.00000001       0.00048700 </v>
   <v>       0.00000001      -0.00000001      -0.00048700 </v>
  </varray>
  <varray name="stress" >
   <v>      -0.02072082       0.00000000       0.00000001 </v>
   <v>       0.00000000      -0.02081509      -0.00000000 </v>
   <v>       0.00000001      -0.00000000      -0.02656148 </v>
  </varray>
  <energy>
   <i name="e_fr_energy">     -6.75919602 </i>
   <i name="e_wo_entrp">     -6.75919602 </i>
   <i name="e_0_energy">     -0.00000000 </i>
  </energy>
  <time name="totalsc">   11.82   12.09</time>
  <eigenvalues>
   <array>
    <dimension dim="1">band</dimension>
    <dimension dim="2">kpoint</dimension>
    <dimension dim="3">spin</dimension>
    <field>eigene</field>
    <field>occ</field>
    <set>
     <set comment="spin 1">
      <set comment="kpoint 1">
       <r>  -10.3274    1.0000 </r>
       <r>   -0.0607    0.0000 </r>
       <r>    0.1232    0.0000 </r>
       <r>    0.2108    0.0000 </r>
       <r>    0.2815    0.0000 </r>
       <r>    0.3136    0.0000 </r>
      </set>
     </set>
     <set comment="spin 2">
      <set comment="kpoint 1">
       <r>  -10.3274    1.0000 </r>
       <r>   -0.0607    0.0000 </r>
       <r>    0.1232    0.0000 </r>
       <r>    0.2108    0.0000 </r>
       <r>    0.2815    0.0000 </r>
       <r>    0.3136    0.0000 </r>
      </set>
     </set>
    </set>
   </array>
  </eigenvalues>
  <separator name="orbital magnetization" >
   <v name="MAGDIPOLOUT">      0.00000000      0.00000000      0.00000000</v>
  </separator>
  <dos>
   <i name="efermi">     -9.85244962 </i>
   <total>
    <array>
     <dimension dim="1">gridpoints</dimension>
     <dimension dim="2">spin</dimension>
     <field>energy</field>
     <field>total</field>
     <field>integrated</field>
     <set>
      <set comment="spin 1">
       <r>   -11.3274     0.0000     0.0000 </r>
       <r>   -11.2853     0.0000     0.0000 </r>
       <r>   -11.2431     0.0000     0.0000 </r>
       <r>   -11.2010     0.0000     0.0000 </r>
       <r>   -11.1588     0.0000     0.0000 </r>
       <r>   -11.1167     0.0000     0.0000 </r>
       <r>   -11.0746     0.0000     0.0000 </r>
       <r>   -11.0324     0.0000     0.0000 </r>
       <r>   -10.9903     0.0000     0.0000 </r>
       <r>   -10.9482     0.0000     0.0000 </r>
       <r>   -10.9060     0.0000     0.0000 </r>
       <r>   -10.8639     0.0000     0.0000 </r>
       <r>   -10.8218     0.0000     0.0000 </r>
       <r>   -10.7796     0.0000     0.0000 </r>
       <r>   -10.7375     0.0000     0.0000 </r>
       <r>   -10.6953     0.0000     0.0000 </r>
       <r>   -10.6532     0.0000     0.0000 </r>
       <r>   -10.6111     0.0007     0.0000 </r>
       <r>   -10.5689     0.0068     0.0003 </r>
       <r>   -10.5268     0.0494     0.0024 </r>
       <r>   -10.4847     0.2532     0.0131 </r>
       <r>   -10.4425     0.9177     0.0517 </r>
       <r>   -10.4004     2.3547     0.1510 </r>
       <r>   -10.3583     4.2790     0.3313 </r>
       <r>   -10.3161     5.5080     0.5634 </r>
       <r>   -10.2740     5.0226     0.7750 </r>
       <r>   -10.2318     3.2444     0.9117 </r>
       <r>   -10.1897     1.4844     0.9742 </r>
       <r>   -10.1476     0.4809     0.9945 </r>
       <r>   -10.1054     0.1103     0.9992 </r>
       <r>   -10.0633     0.0179     0.9999 </r>
       <r>   -10.0212     0.0021     1.0000 </r>
       <r>    -9.9790     0.0002     1.0000 </r>
       <r>    -9.9369     0.0000     1.0000 </r>
       <r>    -9.8948     0.0000     1.0000 </r>
       <r>    -9.8526     0.0000     1.0000 </r>
       <r>    -9.8105     0.0000     1.0000 </r>
       <r>    -9.7683     0.0000     1.0000 </r>
       <r>    -9.7262     0.0000     1.0000 </r>
       <r>    -9.6841     0.0000     1.0000 </r>
       <r>    -9.6419     0.0000     1.0000 </r>
       <r>    -9.5998     0.0000     1.0000 </r>
       <r>    -9.5577     0.0000     1.0000 </r>
       <r>    -9.5155     0.0000     1.0000 </r>
       <r>    -9.4734     0.0000     1.0000 </r>
       <r>    -9.4312     0.0000     1.0000 </r>
       <r>    -9.3891     0.0000     1.0000 </r>
       <r>    -9.3470     0.0000     1.0000 </r>
       <r>    -9.3048     0.0000     1.0000 </r>
       <r>    -9.2627     0.0000     1.0000 </r>
       <r>    -9.2206     0.0000     1.0000 </r>
       <r>    -9.1784     0.0000     1.0000 </r>
       <r>    -9.1363     0.0000     1.0000 </r>
       <r>    -9.0942     0.0000     1.0000 </r>
       <r>    -9.0520     0.0000     1.0000 </r>
       <r>    -9.0099     0.0000     1.0000 </r>
       <r>    -8.9677     0.0000     1.0000 </r>
       <r>    -8.9256     0.0000     1.0000 </r>
       <r>    -8.8835     0.0000     1.0000 </r>
       <r>    -8.8413     0.0000     1.0000 </r>
       <r>    -8.7992     0.0000     1.0000 </r>
       <r>    -8.7571     0.0000     1.0000 </r>
       <r>    -8.7149     0.0000     1.0000 </r>
       <r>    -8.6728     0.0000     1.0000 </r>
       <r>    -8.6307     0.0000     1.0000 </r>
       <r>    -8.5885     0.0000     1.0000 </r>
       <r>    -8.5464     0.0000     1.0000 </r>
       <r>    -8.5042     0.0000     1.0000 </r>
       <r>    -8.4621     0.0000     1.0000 </r>
       <r>    -8.4200     0.0000     1.0000 </r>
       <r>    -8.3778     0.0000     1.0000 </r>
       <r>    -8.3357     0.0000     1.0000 </r>
       <r>    -8.2936     0.0000     1.0000 </r>
       <r>    -8.2514     0.0000     1.0000 </r>
       <r>    -8.2093     0.0000     1.0000 </r>
       <r>    -8.1672     0.0000     1.0000 </r>
       <r>    -8.1250     0.0000     1.0000 </r>
       <r>    -8.0829     0.0000     1.0000 </r>
       <r>    -8.0407     0.0000     1.0000 </r>
       <r>    -7.9986     0.0000     1.0000 </r>
       <r>    -7.9565     0.0000     1.0000 </r>
       <r>    -7.9143     0.0000     1.0000 </r>
       <r>    -7.8722     0.0000     1.0000 </r>
       <r>    -7.8301     0.0000     1.0000 </r>
       <r>    -7.7879     0.0000     1.0000 </r>
       <r>    -7.7458     0.0000     1.0000 </r>
       <r>    -7.7037     0.0000     1.0000 </r>
       <r>    -7.6615     0.0000     1.0000 </r>
       <r>    -7.6194     0.0000     1.0000 </r>
       <r>    -7.5772     0.0000     1.0000 </r>
       <r>    -7.5351     0.0000     1.0000 </r>
       <r>    -7.4930     0.0000     1.0000 </r>
       <r>    -7.4508     0.0000     1.0000 </r>
       <r>    -7.4087     0.0000     1.0000 </r>
       <r>    -7.3666     0.0000     1.0000 </r>
       <r>    -7.3244     0.0000     1.0000 </r>
       <r>    -7.2823     0.0000     1.0000 </r>
       <r>    -7.2402     0.0000     1.0000 </r>
       <r>    -7.1980     0.0000     1.0000 </r>
       <r>    -7.1559     0.0000     1.0000 </r>
       <r>    -7.1137     0.0000     1.0000 </r>
       <r>    -7.0716     0.0000     1.0000 </r>
       <r>    -7.0295     0.0000     1.0000 </r>
       <r>    -6.9873     0.0000     1.0000 </r>
       <r>    -6.9452     0.0000     1.0000 </r>
       <r>    -6.9031     0.0000     1.0000 </r>
       <r>    -6.8609     0.0000     1.0000 </r>
       <r>    -6.8188     0.0000     1.0000 </r>
       <r>    -6.7766     0.0000     1.0000 </r>
       <r>    -6.7345     0.0000     1.0000 </r>
       <r>    -6.6924     0.0000     1.0000 </r>
       <r>    -6.6502     0.0000     1.0000 </r>
       <r>    -6.6081     0.0000     1.0000 </r>
       <r>    -6.5660     0.0000     1.0000 </r>
       <r>    -6.5238     0.0000     1.0000 </r>
       <r>    -6.4817     0.0000     1.0000 </r>
       <r>    -6.4396     0.0000     1.0000 </r>
       <r>    -6.3974     0.0000     1.0000 </r>
       <r>    -6.3553     0.0000     1.0000 </r>
       <r>    -6.3131     0.0000     1.0000 </r>
       <r>    -6.2710     0.0000     1.0000 </r>
       <r>    -6.2289     0.0000     1.0000 </r>
       <r>    -6.1867     0.0000     1.0000 </r>
       <r>    -6.1446     0.0000     1.0000 </r>
       <r>    -6.1025     0.0000     1.0000 </r>
       <r>    -6.0603     0.0000     1.0000 </r>
       <r>    -6.0182     0.0000     1.0000 </r>
       <r>    -5.9761     0.0000     1.0000 </r>
       <r>    -5.9339     0.0000     1.0000 </r>
       <r>    -5.8918     0.0000     1.0000 </r>
       <r>    -5.8496     0.0000     1.0000 </r>
       <r>    -5.8075     0.0000     1.0000 </r>
       <r>    -5.7654     0.0000     1.0000 </r>
       <r>    -5.7232     0.0000     1.0000 </r>
       <r>    -5.6811     0.0000     1.0000 </r>
       <r>    -5.6390     0.0000     1.0000 </r>
       <r>    -5.5968     0.0000     1.0000 </r>
       <r>    -5.5547     0.0000     1.0000 </r>
       <r>    -5.5126     0.0000     1.0000 </r>
       <r>    -5.4704     0.0000     1.0000 </r>
       <r>    -5.4283     0.0000     1.0000 </r>
       <r>    -5.3861     0.0000     1.0000 </r>
       <r>    -5.3440     0.0000     1.0000 </r>
       <r>    -5.3019     0.0000     1.0000 </r>
       <r>    -5.2597     0.0000     1.0000 </r>
       <r>    -5.2176     0.0000     1.0000 </r>
       <r>    -5.1755     0.0000     1.0000 </r>
       <r>    -5.1333     0.0000     1.0000 </r>
       <r>    -5.0912     0.0000     1.0000 </r>
       <r>    -5.0491     0.0000     1.0000 </r>
       <r>    -5.0069     0.0000     1.0000 </r>
       <r>    -4.9648     0.0000     1.0000 </r>
       <r>    -4.9226     0.0000     1.0000 </r>
       <r>    -4.8805     0.0000     1.0000 </r>
       <r>    -4.8384     0.0000     1.0000 </r>
       <r>    -4.7962     0.0000     1.0000 </r>
       <r>    -4.7541     0.0000     1.0000 </r>
       <r>    -4.7120     0.0000     1.0000 </r>
       <r>    -4.6698     0.0000     1.0000 </r>
       <r>    -4.6277     0.0000     1.0000 </r>
       <r>    -4.5856     0.0000     1.0000 </r>
       <r>    -4.5434     0.0000     1.0000 </r>
       <r>    -4.5013     0.0000     1.0000 </r>
       <r>    -4.4591     0.0000     1.0000 </r>
       <r>    -4.4170     0.0000     1.0000 </r>
       <r>    -4.3749     0.0000     1.0000 </r>
       <r>    -4.3327     0.0000     1.0000 </r>
       <r>    -4.2906     0.0000     1.0000 </r>
       <r>    -4.2485     0.0000     1.0000 </r>
       <r>    -4.2063     0.0000     1.0000 </r>
       <r>    -4.1642     0.0000     1.0000 </r>
       <r>    -4.1220     0.0000     1.0000 </r>
       <r>    -4.0799     0.0000     1.0000 </r>
       <r>    -4.0378     0.0000     1.0000 </r>
       <r>    -3.9956     0.0000     1.0000 </r>
       <r>    -3.9535     0.0000     1.0000 </r>
       <r>    -3.9114     0.0000     1.0000 </r>
       <r>    -3.8692     0.0000     1.0000 </r>
       <r>    -3.8271     0.0000     1.0000 </r>
       <r>    -3.7850     0.0000     1.0000 </r>
       <r>    -3.7428     0.0000     1.0000 </r>
       <r>    -3.7007     0.0000     1.0000 </r>
       <r>    -3.6585     0.0000     1.0000 </r>
       <r>    -3.6164     0.0000     1.0000 </r>
       <r>    -3.5743     0.0000     1.0000 </r>
       <r>    -3.5321     0.0000     1.0000 </r>
       <r>    -3.4900     0.0000     1.0000 </r>
       <r>    -3.4479     0.0000     1.0000 </r>
       <r>    -3.4057     0.0000     1.0000 </r>
       <r>    -3.3636     0.0000     1.0000 </r>
       <r>    -3.3215     0.0000     1.0000 </r>
       <r>    -3.2793     0.0000     1.0000 </r>
       <r>    -3.2372     0.0000     1.0000 </r>
       <r>    -3.1950     0.0000     1.0000 </r>
       <r>    -3.1529     0.0000     1.0000 </r>
       <r>    -3.1108     0.0000     1.0000 </r>
       <r>    -3.0686     0.0000     1.0000 </r>
       <r>    -3.0265     0.0000     1.0000 </r>
       <r>    -2.9844     0.0000     1.0000 </r>
       <r>    -2.9422     0.0000     1.0000 </r>
       <r>    -2.9001     0.0000     1.0000 </r>
       <r>    -2.8580     0.0000     1.0000 </r>
       <r>    -2.8158     0.0000     1.0000 </r>
       <r>    -2.7737     0.0000     1.0000 </r>
       <r>    -2.7315     0.0000     1.0000 </r>
       <r>    -2.6894     0.0000     1.0000 </r>
       <r>    -2.6473     0.0000     1.0000 </r>
       <r>    -2.6051     0.0000     1.0000 </r>
       <r>    -2.5630     0.0000     1.0000 </r>
       <r>    -2.5209     0.0000     1.0000 </r>
       <r>    -2.4787     0.0000     1.0000 </r>
       <r>    -2.4366     0.0000     1.0000 </r>
       <r>    -2.3945     0.0000     1.0000 </r>
       <r>    -2.3523     0.0000     1.0000 </r>
       <r>    -2.3102     0.0000     1.0000 </r>
       <r>    -2.2680     0.0000     1.0000 </r>
       <r>    -2.2259     0.0000     1.0000 </r>
       <r>    -2.1838     0.0000     1.0000 </r>
       <r>    -2.1416     0.0000     1.0000 </r>
       <r>    -2.0995     0.0000     1.0000 </r>
       <r>    -2.0574     0.0000     1.0000 </r>
       <r>    -2.0152     0.0000     1.0000 </r>
       <r>    -1.9731     0.0000     1.0000 </r>
       <r>    -1.9310     0.0000     1.0000 </r>
       <r>    -1.8888     0.0000     1.0000 </r>
       <r>    -1.8467     0.0000     1.0000 </r>
       <r>    -1.8045     0.0000     1.0000 </r>
       <r>    -1.7624     0.0000     1.0000 </r>
       <r>    -1.7203     0.0000     1.0000 </r>
       <r>    -1.6781     0.0000     1.0000 </r>
       <r>    -1.6360     0.0000     1.0000 </r>
       <r>    -1.5939     0.0000     1.0000 </r>
       <r>    -1.5517     0.0000     1.0000 </r>
       <r>    -1.5096     0.0000     1.0000 </r>
       <r>    -1.4674     0.0000     1.0000 </r>
       <r>    -1.4253     0.0000     1.0000 </r>
       <r>    -1.3832     0.0000     1.0000 </r>
       <r>    -1.3410     0.0000     1.0000 </r>
       <r>    -1.2989     0.0000     1.0000 </r>
       <r>    -1.2568     0.0000     1.0000 </r>
       <r>    -1.2146     0.0000     1.0000 </r>
       <r>    -1.1725     0.0000     1.0000 </r>
       <r>    -1.1304     0.0000     1.0000 </r>
       <r>    -1.0882     0.0000     1.0000 </r>
       <r>    -1.0461     0.0000     1.0000 </r>
       <r>    -1.0039     0.0000     1.0000 </r>
       <r>    -0.9618     0.0000     1.0000 </r>
       <r>    -0.9197     0.0000     1.0000 </r>
       <r>    -0.8775     0.0000     1.0000 </r>
       <r>    -0.8354     0.0000     1.0000 </r>
       <r>    -0.7933     0.0000     1.0000 </r>
       <r>    -0.7511     0.0000     1.0000 </r>
       <r>    -0.7090     0.0000     1.0000 </r>
       <r>    -0.6669     0.0000     1.0000 </r>
       <r>    -0.6247     0.0000     1.0000 </r>
       <r>    -0.5826     0.0000     1.0000 </r>
       <r>    -0.5404     0.0000     1.0000 </r>
       <r>    -0.4983     0.0000     1.0000 </r>
       <r>    -0.4562     0.0000     1.0000 </r>
       <r>    -0.4140     0.0000     1.0000 </r>
       <r>    -0.3719     0.0001     1.0000 </r>
       <r>    -0.3298     0.0016     1.0001 </r>
       <r>    -0.2876     0.0141     1.0007 </r>
       <r>    -0.2455     0.0906     1.0045 </r>
       <r>    -0.2034     0.4117     1.0218 </r>
       <r>    -0.1612     1.3241     1.0776 </r>
       <r>    -0.1191     3.0191     1.2048 </r>
       <r>    -0.0769     4.9053     1.4115 </r>
       <r>    -0.0348     5.7994     1.6559 </r>
       <r>     0.0073     5.4307     1.8847 </r>
       <r>     0.0495     5.1280     2.1008 </r>
       <r>     0.0916     6.2057     2.3623 </r>
       <r>     0.1337     8.4421     2.7180 </r>
       <r>     0.1759    10.8584     3.1755 </r>
       <r>     0.2180    13.0066     3.7236 </r>
       <r>     0.2601    14.5679     4.3374 </r>
       <r>     0.3023    14.5095     4.9488 </r>
       <r>     0.3444    11.9359     5.4518 </r>
       <r>     0.3866     7.6438     5.7738 </r>
       <r>     0.4287     3.6717     5.9285 </r>
       <r>     0.4708     1.2948     5.9831 </r>
       <r>     0.5130     0.3311     5.9971 </r>
       <r>     0.5551     0.0610     5.9996 </r>
       <r>     0.5972     0.0080     6.0000 </r>
       <r>     0.6394     0.0008     6.0000 </r>
       <r>     0.6815     0.0001     6.0000 </r>
       <r>     0.7236     0.0000     6.0000 </r>
       <r>     0.7658     0.0000     6.0000 </r>
       <r>     0.8079     0.0000     6.0000 </r>
       <r>     0.8501     0.0000     6.0000 </r>
       <r>     0.8922     0.0000     6.0000 </r>
       <r>     0.9343     0.0000     6.0000 </r>
       <r>     0.9765     0.0000     6.0000 </r>
       <r>     1.0186     0.0000     6.0000 </r>
       <r>     1.0607     0.0000     6.0000 </r>
       <r>     1.1029     0.0000     6.0000 </r>
       <r>     1.1450     0.0000     6.0000 </r>
       <r>     1.1872     0.0000     6.0000 </r>
       <r>     1.2293     0.0000     6.0000 </r>
       <r>     1.2714     0.0000     6.0000 </r>
       <r>     1.3136     0.0000     6.0000 </r>
      </set>
      <set comment="spin 2">
       <r>   -11.3274     0.0000     0.0000 </r>
       <r>   -11.2853     0.0000     0.0000 </r>
       <r>   -11.2431     0.0000     0.0000 </r>
       <r>   -11.2010     0.0000     0.0000 </r>
       <r>   -11.1588     0.0000     0.0000 </r>
       <r>   -11.1167     0.0000     0.0000 </r>
       <r>   -11.0746     0.0000     0.0000 </r>
       <r>   -11.0324     0.0000     0.0000 </r>
       <r>   -10.9903     0.0000     0.0000 </r>
       <r>   -10.9482     0.0000     0.0000 </r>
       <r>   -10.9060     0.0000     0.0000 </r>
       <r>   -10.8639     0.0000     0.0000 </r>
       <r>   -10.8218     0.0000     0.0000 </r>
       <r>   -10.7796     0.0000     0.0000 </r>
       <r>   -10.7375     0.0000     0.0000 </r>
       <r>   -10.6953     0.0000     0.0000 </r>
       <r>   -10.6532     0.0000     0.0000 </r>
       <r>   -10.6111     0.0007     0.0000 </r>
       <r>   -10.5689     0.0068     0.0003 </r>
       <r>   -10.5268     0.0494     0.0024 </r>
       <r>   -10.4847     0.2532     0.0131 </r>
       <r>   -10.4425     0.9177     0.0517 </r>
       <r>   -10.4004     2.3547     0.1510 </r>
       <r>   -10.3583     4.2790     0.3313 </r>
       <r>   -10.3161     5.5080     0.5633 </r>
       <r>   -10.2740     5.0227     0.7750 </r>
       <r>   -10.2318     3.2445     0.9117 </r>
       <r>   -10.1897     1.4844     0.9742 </r>
       <r>   -10.1476     0.4809     0.9945 </r>
       <r>   -10.1054     0.1103     0.9992 </r>
       <r>   -10.0633     0.0179     0.9999 </r>
       <r>   -10.0212     0.0021     1.0000 </r>
       <r>    -9.9790     0.0002     1.0000 </r>
       <r>    -9.9369     0.0000     1.0000 </r>
       <r>    -9.8948     0.0000     1.0000 </r>
       <r>    -9.8526     0.0000     1.0000 </r>
       <r>    -9.8105     0.0000     1.0000 </r>
       <r>    -9.7683     0.0000     1.0000 </r>
       <r>    -9.7262     0.0000     1.0000 </r>
       <r>    -9.6841     0.0000     1.0000 </r>
       <r>    -9.6419     0.0000     1.0000 </r>
       <r>    -9.5998     0.0000     1.0000 </r>
       <r>    -9.5577     0.0000     1.0000 </r>
       <r>    -9.5155     0.0000     1.0000 </r>
       <r>    -9.4734     0.0000     1.0000 </r>
       <r>    -9.4312     0.0000     1.0000 </r>
       <r>    -9.3891     0.0000     1.0000 </r>
       <r>    -9.3470     0.0000     1.0000 </r>
       <r>    -9.3048     0.0000     1.0000 </r>
       <r>    -9.2627     0.0000     1.0000 </r>
       <r>    -9.2206     0.0000     1.0000 </r>
       <r>    -9.1784     0.0000     1.0000 </r>
       <r>    -9.1363     0.0000     1.0000 </r>
       <r>    -9.0942     0.0000     1.0000 </r>
       <r>    -9.0520     0.0000     1.0000 </r>
       <r>    -9.0099     0.0000     1.0000 </r>
       <r>    -8.9677     0.0000     1.0000 </r>
       <r>    -8.9256     0.0000     1.0000 </r>
       <r>    -8.8835     0.0000     1.0000 </r>
       <r>    -8.8413     0.0000     1.0000 </r>
       <r>    -8.7992     0.0000     1.0000 </r>
       <r>    -8.7571     0.0000     1.0000 </r>
       <r>    -8.7149     0.0000     1.0000 </r>
       <r>    -8.6728     0.0000     1.0000 </r>
       <r>    -8.6307     0.0000     1.0000 </r>
       <r>    -8.5885     0.0000     1.0000 </r>
       <r>    -8.5464     0.0000     1.0000 </r>
       <r>    -8.5042     0.0000     1.0000 </r>
       <r>    -8.4621     0.0000     1.0000 </r>
       <r>    -8.4200     0.0000     1.0000 </r>
       <r>    -8.3778     0.0000     1.0000 </r>
       <r>    -8.3357     0.0000     1.0000 </r>
       <r>    -8.2936     0.0000     1.0000 </r>
       <r>    -8.2514     0.0000     1.0000 </r>
       <r>    -8.2093     0.0000     1.0000 </r>
       <r>    -8.1672     0.0000     1.0000 </r>
       <r>    -8.1250     0.0000     1.0000 </r>
       <r>    -8.0829     0.0000     1.0000 </r>
       <r>    -8.0407     0.0000     1.0000 </r>
       <r>    -7.9986     0.0000     1.0000 </r>
       <r>    -7.9565     0.0000     1.0000 </r>
       <r>    -7.9143     0.0000     1.0000 </r>
       <r>    -7.8722     0.0000     1.0000 </r>
       <r>    -7.8301     0.0000     1.0000 </r>
       <r>    -7.7879     0.0000     1.0000 </r>
       <r>    -7.7458     0.0000     1.0000 </r>
       <r>    -7.7037     0.0000     1.0000 </r>
       <r>    -7.6615     0.0000     1.0000 </r>
       <r>    -7.6194     0.0000     1.0000 </r>
       <r>    -7.5772     0.0000     1.0000 </r>
       <r>    -7.5351     0.0000     1.0000 </r>
       <r>    -7.4930     0.0000     1.0000 </r>
       <r>    -7.4508     0.0000     1.0000 </r>
       <r>    -7.4087     0.0000     1.0000 </r>
       <r>    -7.3666     0.0000     1.0000 </r>
       <r>    -7.3244     0.0000     1.0000 </r>
       <r>    -7.2823     0.0000     1.0000 </r>
       <r>    -7.2402     0.0000     1.0000 </r>
       <r>    -7.1980     0.0000     1.0000 </r>
       <r>    -7.1559     0.0000     1.0000 </r>
       <r>    -7.1137     0.0000     1.0000 </r>
       <r>    -7.0716     0.0000     1.0000 </r>
       <r>    -7.0295     0.0000     1.0000 </r>
       <r>    -6.9873     0.0000     1.0000 </r>
       <r>    -6.9452     0.0000     1.0000 </r>
       <r>    -6.9031     0.0000     1.0000 </r>
       <r>    -6.8609     0.0000     1.0000 </r>
       <r>    -6.8188     0.0000     1.0000 </r>
       <r>    -6.7766     0.0000     1.0000 </r>
       <r>    -6.7345     0.0000     1.0000 </r>
       <r>    -6.6924     0.0000     1.0000 </r>
       <r>    -6.6502     0.0000     1.0000 </r>
       <r>    -6.6081     0.0000     1.0000 </r>
       <r>    -6.5660     0.0000     1.0000 </r>
       <r>    -6.5238     0.0000     1.0000 </r>
       <r>    -6.4817     0.0000     1.0000 </r>
       <r>    -6.4396     0.0000     1.0000 </r>
       <r>    -6.3974     0.0000     1.0000 </r>
       <r>    -6.3553     0.0000     1.0000 </r>
       <r>    -6.3131     0.0000     1.0000 </r>
       <r>    -6.2710     0.0000     1.0000 </r>
       <r>    -6.2289     0.0000     1.0000 </r>
       <r>    -6.1867     0.0000     1.0000 </r>
       <r>    -6.1446     0.0000     1.0000 </r>
       <r>    -6.1025     0.0000     1.0000 </r>
       <r>    -6.0603     0.0000     1.0000 </r>
       <r>    -6.0182     0.0000     1.0000 </r>
       <r>    -5.9761     0.0000     1.0000 </r>
       <r>    -5.9339     0.0000     1.0000 </r>
       <r>    -5.8918     0.0000     1.0000 </r>
       <r>    -5.8496     0.0000     1.0000 </r>
       <r>    -5.8075     0.0000     1.0000 </r>
       <r>    -5.7654     0.0000     1.0000 </r>
       <r>    -5.7232     0.0000     1.0000 </r>
       <r>    -5.6811     0.0000     1.0000 </r>
       <r>    -5.6390     0.0000     1.0000 </r>
       <r>    -5.5968     0.0000     1.0000 </r>
       <r>    -5.5547     0.0000     1.0000 </r>
       <r>    -5.5126     0.0000     1.0000 </r>
       <r>    -5.4704     0.0000     1.0000 </r>
       <r>    -5.4283     0.0000     1.0000 </r>
       <r>    -5.3861     0.0000     1.0000 </r>
       <r>    -5.3440     0.0000     1.0000 </r>
       <r>    -5.3019     0.0000     1.0000 </r>
       <r>    -5.2597     0.0000     1.0000 </r>
       <r>    -5.2176     0.0000     1.0000 </r>
       <r>    -5.1755     0.0000     1.0000 </r>
       <r>    -5.1333     0.0000     1.0000 </r>
       <r>    -5.0912     0.0000     1.0000 </r>
       <r>    -5.0491     0.0000     1.0000 </r>
       <r>    -5.0069     0.0000     1.0000 </r>
       <r>    -4.9648     0.0000     1.0000 </r>
       <r>    -4.9226     0.0000     1.0000 </r>
       <r>    -4.8805     0.0000     1.0000 </r>
       <r>    -4.8384     0.0000     1.0000 </r>
       <r>    -4.7962     0.0000     1.0000 </r>
       <r>    -4.7541     0.0000     1.0000 </r>
       <r>    -4.7120     0.0000     1.0000 </r>
       <r>    -4.6698     0.0000     1.0000 </r>
       <r>    -4.6277     0.0000     1.0000 </r>
       <r>    -4.5856     0.0000     1.0000 </r>
       <r>    -4.5434     0.0000     1.0000 </r>
       <r>    -4.5013     0.0000     1.0000 </r>
       <r>    -4.4591     0.0000     1.0000 </r>
       <r>    -4.4170     0.0000     1.0000 </r>
       <r>    -4.3749     0.0000     1.0000 </r>
       <r>    -4.3327     0.0000     1.0000 </r>
       <r>    -4.2906     0.0000     1.0000 </r>
       <r>    -4.2485     0.0000     1.0000 </r>
       <r>    -4.2063     0.0000     1.0000 </r>
       <r>    -4.1642     0.0000     1.0000 </r>
       <r>    -4.1220     0.0000     1.0000 </r>
       <r>    -4.0799     0.0000     1.0000 </r>
       <r>    -4.0378     0.0000     1.0000 </r>
       <r>    -3.9956     0.0000     1.0000 </r>
       <r>    -3.9535     0.0000     1.0000 </r>
       <r>    -3.9114     0.0000     1.0000 </r>
       <r>    -3.8692     0.0000     1.0000 </r>
       <r>    -3.8271     0.0000     1.0000 </r>
       <r>    -3.7850     0.0000     1.0000 </r>
       <r>    -3.7428     0.0000     1.0000 </r>
       <r>    -3.7007     0.0000     1.0000 </r>
       <r>    -3.6585     0.0000     1.0000 </r>
       <r>    -3.6164     0.0000     1.0000 </r>
       <r>    -3.5743     0.0000     1.0000 </r>
       <r>    -3.5321     0.0000     1.0000 </r>
       <r>    -3.4900     0.0000     1.0000 </r>
       <r>    -3.4479     0.0000     1.0000 </r>
       <r>    -3.4057     0.0000     1.0000 </r>
       <r>    -3.3636     0.0000     1.0000 </r>
       <r>    -3.3215     0.0000     1.0000 </r>
       <r>    -3.2793     0.0000     1.0000 </r>
       <r>    -3.2372     0.0000     1.0000 </r>
       <r>    -3.1950     0.0000     1.0000 </r>
       <r>    -3.1529     0.0000     1.0000 </r>
       <r>    -3.1108     0.0000     1.0000 </r>
       <r>    -3.0686     0.0000     1.0000 </r>
       <r>    -3.0265     0.0000     1.0000 </r>
       <r>    -2.9844     0.0000     1.0000 </r>
       <r>    -2.9422     0.0000     1.0000 </r>
       <r>    -2.9001     0.0000     1.0000 </r>
       <r>    -2.8580     0.0000     1.0000 </r>
       <r>    -2.8158     0.0000     1.0000 </r>
       <r>    -2.7737     0.0000     1.0000 </r>
       <r>    -2.7315     0.0000     1.0000 </r>
       <r>    -2.6894     0.0000     1.0000 </r>
       <r>    -2.6473     0.0000     1.0000 </r>
       <r>    -2.6051     0.0000     1.0000 </r>
       <r>    -2.5630     0.0000     1.0000 </r>
       <r>    -2.5209     0.0000     1.0000 </r>
       <r>    -2.4787     0.0000     1.0000 </r>
       <r>    -2.4366     0.0000     1.0000 </r>
       <r>    -2.3945     0.0000     1.0000 </r>
       <r>    -2.3523     0.0000     1.0000 </r>
       <r>    -2.3102     0.0000     1.0000 </r>
       <r>    -2.2680     0.0000     1.0000 </r>
       <r>    -2.2259     0.0000     1.0000 </r>
       <r>    -2.1838     0.0000     1.0000 </r>
       <r>    -2.1416     0.0000     1.0000 </r>
       <r>    -2.0995     0.0000     1.0000 </r>
       <r>    -2.0574     0.0000     1.0000 </r>
       <r>    -2.0152     0.0000     1.0000 </r>
       <r>    -1.9731     0.0000     1.0000 </r>
       <r>    -1.9310     0.0000     1.0000 </r>
       <r>    -1.8888     0.0000     1.0000 </r>
       <r>    -1.8467     0.0000     1.0000 </r>
       <r>    -1.8045     0.0000     1.0000 </r>
       <r>    -1.7624     0.0000     1.0000 </r>
       <r>    -1.7203     0.0000     1.0000 </r>
       <r>    -1.6781     0.0000     1.0000 </r>
       <r>    -1.6360     0.0000     1.0000 </r>
       <r>    -1.5939     0.0000     1.0000 </r>
       <r>    -1.5517     0.0000     1.0000 </r>
       <r>    -1.5096     0.0000     1.0000 </r>
       <r>    -1.4674     0.0000     1.0000 </r>
       <r>    -1.4253     0.0000     1.0000 </r>
       <r>    -1.3832     0.0000     1.0000 </r>
       <r>    -1.3410     0.0000     1.0000 </r>
       <r>    -1.2989     0.0000     1.0000 </r>
       <r>    -1.2568     0.0000     1.0000 </r>
       <r>    -1.2146     0.0000     1.0000 </r>
       <r>    -1.1725     0.0000     1.0000 </r>
       <r>    -1.1304     0.0000     1.0000 </r>
       <r>    -1.0882     0.0000     1.0000 </r>
       <r>    -1.0461     0.0000     1.0000 </r>
       <r>    -1.0039     0.0000     1.0000 </r>
       <r>    -0.9618     0.0000     1.0000 </r>
       <r>    -0.9197     0.0000     1.0000 </r>
       <r>    -0.8775     0.0000     1.0000 </r>
       <r>    -0.8354     0.0000     1.0000 </r>
       <r>    -0.7933     0.0000     1.0000 </r>
       <r>    -0.7511     0.0000     1.0000 </r>
       <r>    -0.7090     0.0000     1.0000 </r>
       <r>    -0.6669     0.0000     1.0000 </r>
       <r>    -0.6247     0.0000     1.0000 </r>
       <r>    -0.5826     0.0000     1.0000 </r>
       <r>    -0.5404     0.0000     1.0000 </r>
       <r>    -0.4983     0.0000     1.0000 </r>
       <r>    -0.4562     0.0000     1.0000 </r>
       <r>    -0.4140     0.0000     1.0000 </r>
       <r>    -0.3719     0.0001     1.0000 </r>
       <r>    -0.3298     0.0016     1.0001 </r>
       <r>    -0.2876     0.0141     1.0007 </r>
       <r>    -0.2455     0.0906     1.0045 </r>
       <r>    -0.2034     0.4117     1.0218 </r>
       <r>    -0.1612     1.3241     1.0776 </r>
       <r>    -0.1191     3.0192     1.2048 </r>
       <r>    -0.0769     4.9054     1.4115 </r>
       <r>    -0.0348     5.7996     1.6559 </r>
       <r>     0.0073     5.4310     1.8848 </r>
       <r>     0.0495     5.1287     2.1009 </r>
       <r>     0.0916     6.2065     2.3624 </r>
       <r>     0.1337     8.4427     2.7181 </r>
       <r>     0.1759    10.8583     3.1757 </r>
       <r>     0.2180    13.0061     3.7237 </r>
       <r>     0.2601    14.5673     4.3375 </r>
       <r>     0.3023    14.5090     4.9489 </r>
       <r>     0.3444    11.9355     5.4518 </r>
       <r>     0.3866     7.6435     5.7739 </r>
       <r>     0.4287     3.6714     5.9286 </r>
       <r>     0.4708     1.2947     5.9831 </r>
       <r>     0.5130     0.3311     5.9971 </r>
       <r>     0.5551     0.0609     5.9996 </r>
       <r>     0.5972     0.0080     6.0000 </r>
       <r>     0.6394     0.0008     6.0000 </r>
       <r>     0.6815     0.0001     6.0000 </r>
       <r>     0.7236     0.0000     6.0000 </r>
       <r>     0.7658     0.0000     6.0000 </r>
       <r>     0.8079     0.0000     6.0000 </r>
       <r>     0.8501     0.0000     6.0000 </r>
       <r>     0.8922     0.0000     6.0000 </r>
       <r>     0.9343     0.0000     6.0000 </r>
       <r>     0.9765     0.0000     6.0000 </r>
       <r>     1.0186     0.0000     6.0000 </r>
       <r>     1.0607     0.0000     6.0000 </r>
       <r>     1.1029     0.0000     6.0000 </r>
       <r>     1.1450     0.0000     6.0000 </r>
       <r>     1.1872     0.0000     6.0000 </r>
       <r>     1.2293     0.0000     6.0000 </r>
       <r>     1.2714     0.0000     6.0000 </r>
       <r>     1.3136     0.0000     6.0000 </r>
      </set>
     </set>
    </array>
   </total>
  </dos>
 </calculation>
 <structure name="finalpos" >
  <crystal>
   <varray name="basis" >
    <v>      20.00000000       0.00000000       0.00000000 </v>
    <v>       0.00000000      21.00000000       0.00000000 </v>
    <v>       0.00000000       0.00000000      22.00000000 </v>
   </varray>
   <i name="volume">   9240.00000000 </i>
   <varray name="rec_basis" >
    <v>       0.05000000       0.00000000       0.00000000 </v>
    <v>       0.00000000       0.04761905       0.00000000 </v>
    <v>       0.00000000       0.00000000       0.04545455 </v>
   </varray>
  </crystal>
  <varray name="positions" >
   <v>       0.50000000       0.50000000       0.51706683 </v>
   <v>       0.50000000       0.50000000       0.48293317 </v>
  </varray>
 </structure>
</modeling>
