unknown system                          
           1
    20.000000    0.000000    0.000000
     0.000000   21.000000    0.000000
     0.000000    0.000000   22.000000
   H 
   2
Direct configuration=     1
   0.50000000  0.50000000  0.51675377
   0.50000000  0.50000000  0.48324623
Direct configuration=     2
   0.50000000  0.50000000  0.51750787
   0.50000000  0.50000000  0.48249213
Direct configuration=     3
   0.50000000  0.50000000  0.51706683
   0.50000000  0.50000000  0.48293317
