   3   3   0   0
  0.3080000E+04  0.2000000E-08  0.2100000E-08  0.2200000E-08  0.3500000E-15
  1.000000000000000E-004
  CAR 
 unknown system                          
      1.52878976    -26.57697492  301     -6.71264019      1.00000000
    -26.577  0.0000E+00  0.0000E+00  0.0000E+00  0.0000E+00
    -26.483  0.0000E+00  0.0000E+00  0.0000E+00  0.0000E+00
    -26.390  0.0000E+00  0.0000E+00  0.0000E+00  0.0000E+00
    -26.296  0.0000E+00  0.0000E+00  0.0000E+00  0.0000E+00
    -26.202  0.0000E+00  0.0000E+00  0.0000E+00  0.0000E+00
    -26.109  0.0000E+00  0.0000E+00  0.0000E+00  0.0000E+00
    -26.015  0.0000E+00  0.0000E+00  0.0000E+00  0.0000E+00
    -25.921  0.0000E+00  0.0000E+00  0.0000E+00  0.0000E+00
    -25.827  0.4355E-15  0.4355E-15  0.4080E-16  0.4080E-16
    -25.734  0.4327E-11  0.4326E-11  0.4054E-12  0.4053E-12
    -25.640  0.7739E-08  0.7738E-08  0.7254E-09  0.7254E-09
    -25.546  0.2542E-05  0.2542E-05  0.2388E-06  0.2388E-06
    -25.453  0.1584E-03  0.1584E-03  0.1508E-04  0.1508E-04
    -25.359  0.1969E-02  0.1969E-02  0.1996E-03  0.1996E-03
    -25.265  0.5182E-02  0.5182E-02  0.6850E-03  0.6850E-03
    -25.172  0.2984E-02  0.2984E-02  0.9646E-03  0.9646E-03
    -25.078  0.3686E-03  0.3686E-03  0.9991E-03  0.9991E-03
    -24.984  0.9233E-05  0.9234E-05  0.1000E-02  0.1000E-02
    -24.891  0.4441E-07  0.4442E-07  0.1000E-02  0.1000E-02
    -24.797  0.3952E-10  0.3952E-10  0.1000E-02  0.1000E-02
    -24.703  0.6358E-14  0.6359E-14  0.1000E-02  0.1000E-02
    -24.610  0.0000E+00  0.0000E+00  0.1000E-02  0.1000E-02
    -24.516  0.0000E+00  0.0000E+00  0.1000E-02  0.1000E-02
    -24.422  0.0000E+00  0.0000E+00  0.1000E-02  0.1000E-02
    -24.329  0.0000E+00  0.0000E+00  0.1000E-02  0.1000E-02
    -24.235  0.0000E+00  0.0000E+00  0.1000E-02  0.1000E-02
    -24.141  0.0000E+00  0.0000E+00  0.1000E-02  0.1000E-02
    -24.047  0.0000E+00  0.0000E+00  0.1000E-02  0.1000E-02
    -23.954  0.0000E+00  0.0000E+00  0.1000E-02  0.1000E-02
    -23.860  0.0000E+00  0.0000E+00  0.1000E-02  0.1000E-02
    -23.766  0.0000E+00  0.0000E+00  0.1000E-02  0.1000E-02
    -23.673  0.0000E+00  0.0000E+00  0.1000E-02  0.1000E-02
    -23.579  0.0000E+00  0.0000E+00  0.1000E-02  0.1000E-02
    -23.485  0.0000E+00  0.0000E+00  0.1000E-02  0.1000E-02
    -23.392  0.0000E+00  0.0000E+00  0.1000E-02  0.1000E-02
    -23.298  0.0000E+00  0.0000E+00  0.1000E-02  0.1000E-02
    -23.204  0.0000E+00  0.0000E+00  0.1000E-02  0.1000E-02
    -23.111  0.0000E+00  0.0000E+00  0.1000E-02  0.1000E-02
    -23.017  0.0000E+00  0.0000E+00  0.1000E-02  0.1000E-02
    -22.923  0.0000E+00  0.0000E+00  0.1000E-02  0.1000E-02
    -22.830  0.0000E+00  0.0000E+00  0.1000E-02  0.1000E-02
    -22.736  0.0000E+00  0.0000E+00  0.1000E-02  0.1000E-02
    -22.642  0.0000E+00  0.0000E+00  0.1000E-02  0.1000E-02
    -22.548  0.0000E+00  0.0000E+00  0.1000E-02  0.1000E-02
    -22.455  0.0000E+00  0.0000E+00  0.1000E-02  0.1000E-02
    -22.361  0.0000E+00  0.0000E+00  0.1000E-02  0.1000E-02
    -22.267  0.0000E+00  0.0000E+00  0.1000E-02  0.1000E-02
    -22.174  0.0000E+00  0.0000E+00  0.1000E-02  0.1000E-02
    -22.080  0.0000E+00  0.0000E+00  0.1000E-02  0.1000E-02
    -21.986  0.0000E+00  0.0000E+00  0.1000E-02  0.1000E-02
    -21.893  0.0000E+00  0.0000E+00  0.1000E-02  0.1000E-02
    -21.799  0.0000E+00  0.0000E+00  0.1000E-02  0.1000E-02
    -21.705  0.0000E+00  0.0000E+00  0.1000E-02  0.1000E-02
    -21.612  0.0000E+00  0.0000E+00  0.1000E-02  0.1000E-02
    -21.518  0.0000E+00  0.0000E+00  0.1000E-02  0.1000E-02
    -21.424  0.0000E+00  0.0000E+00  0.1000E-02  0.1000E-02
    -21.331  0.0000E+00  0.0000E+00  0.1000E-02  0.1000E-02
    -21.237  0.0000E+00  0.0000E+00  0.1000E-02  0.1000E-02
    -21.143  0.0000E+00  0.0000E+00  0.1000E-02  0.1000E-02
    -21.050  0.0000E+00  0.0000E+00  0.1000E-02  0.1000E-02
    -20.956  0.0000E+00  0.0000E+00  0.1000E-02  0.1000E-02
    -20.862  0.0000E+00  0.0000E+00  0.1000E-02  0.1000E-02
    -20.768  0.0000E+00  0.0000E+00  0.1000E-02  0.1000E-02
    -20.675  0.0000E+00  0.0000E+00  0.1000E-02  0.1000E-02
    -20.581  0.0000E+00  0.0000E+00  0.1000E-02  0.1000E-02
    -20.487  0.0000E+00  0.0000E+00  0.1000E-02  0.1000E-02
    -20.394  0.0000E+00  0.0000E+00  0.1000E-02  0.1000E-02
    -20.300  0.0000E+00  0.0000E+00  0.1000E-02  0.1000E-02
    -20.206  0.0000E+00  0.0000E+00  0.1000E-02  0.1000E-02
    -20.113  0.0000E+00  0.0000E+00  0.1000E-02  0.1000E-02
    -20.019  0.0000E+00  0.0000E+00  0.1000E-02  0.1000E-02
    -19.925  0.0000E+00  0.0000E+00  0.1000E-02  0.1000E-02
    -19.832  0.0000E+00  0.0000E+00  0.1000E-02  0.1000E-02
    -19.738  0.0000E+00  0.0000E+00  0.1000E-02  0.1000E-02
    -19.644  0.0000E+00  0.0000E+00  0.1000E-02  0.1000E-02
    -19.551  0.0000E+00  0.0000E+00  0.1000E-02  0.1000E-02
    -19.457  0.0000E+00  0.0000E+00  0.1000E-02  0.1000E-02
    -19.363  0.0000E+00  0.0000E+00  0.1000E-02  0.1000E-02
    -19.269  0.0000E+00  0.0000E+00  0.1000E-02  0.1000E-02
    -19.176  0.0000E+00  0.0000E+00  0.1000E-02  0.1000E-02
    -19.082  0.0000E+00  0.0000E+00  0.1000E-02  0.1000E-02
    -18.988  0.0000E+00  0.0000E+00  0.1000E-02  0.1000E-02
    -18.895  0.0000E+00  0.0000E+00  0.1000E-02  0.1000E-02
    -18.801  0.0000E+00  0.0000E+00  0.1000E-02  0.1000E-02
    -18.707  0.0000E+00  0.0000E+00  0.1000E-02  0.1000E-02
    -18.614  0.0000E+00  0.0000E+00  0.1000E-02  0.1000E-02
    -18.520  0.0000E+00  0.0000E+00  0.1000E-02  0.1000E-02
    -18.426  0.0000E+00  0.0000E+00  0.1000E-02  0.1000E-02
    -18.333  0.0000E+00  0.0000E+00  0.1000E-02  0.1000E-02
    -18.239  0.0000E+00  0.0000E+00  0.1000E-02  0.1000E-02
    -18.145  0.0000E+00  0.0000E+00  0.1000E-02  0.1000E-02
    -18.052  0.0000E+00  0.0000E+00  0.1000E-02  0.1000E-02
    -17.958  0.0000E+00  0.0000E+00  0.1000E-02  0.1000E-02
    -17.864  0.0000E+00  0.0000E+00  0.1000E-02  0.1000E-02
    -17.771  0.0000E+00  0.0000E+00  0.1000E-02  0.1000E-02
    -17.677  0.0000E+00  0.0000E+00  0.1000E-02  0.1000E-02
    -17.583  0.0000E+00  0.0000E+00  0.1000E-02  0.1000E-02
    -17.489  0.0000E+00  0.0000E+00  0.1000E-02  0.1000E-02
    -17.396  0.0000E+00  0.0000E+00  0.1000E-02  0.1000E-02
    -17.302  0.0000E+00  0.0000E+00  0.1000E-02  0.1000E-02
    -17.208  0.0000E+00  0.0000E+00  0.1000E-02  0.1000E-02
    -17.115  0.0000E+00  0.0000E+00  0.1000E-02  0.1000E-02
    -17.021  0.0000E+00  0.0000E+00  0.1000E-02  0.1000E-02
    -16.927  0.0000E+00  0.0000E+00  0.1000E-02  0.1000E-02
    -16.834  0.0000E+00  0.0000E+00  0.1000E-02  0.1000E-02
    -16.740  0.0000E+00  0.0000E+00  0.1000E-02  0.1000E-02
    -16.646  0.0000E+00  0.0000E+00  0.1000E-02  0.1000E-02
    -16.553  0.0000E+00  0.0000E+00  0.1000E-02  0.1000E-02
    -16.459  0.0000E+00  0.0000E+00  0.1000E-02  0.1000E-02
    -16.365  0.0000E+00  0.0000E+00  0.1000E-02  0.1000E-02
    -16.272  0.0000E+00  0.0000E+00  0.1000E-02  0.1000E-02
    -16.178  0.0000E+00  0.0000E+00  0.1000E-02  0.1000E-02
    -16.084  0.0000E+00  0.0000E+00  0.1000E-02  0.1000E-02
    -15.990  0.0000E+00  0.0000E+00  0.1000E-02  0.1000E-02
    -15.897  0.0000E+00  0.0000E+00  0.1000E-02  0.1000E-02
    -15.803  0.0000E+00  0.0000E+00  0.1000E-02  0.1000E-02
    -15.709  0.0000E+00  0.0000E+00  0.1000E-02  0.1000E-02
    -15.616  0.0000E+00  0.0000E+00  0.1000E-02  0.1000E-02
    -15.522  0.0000E+00  0.0000E+00  0.1000E-02  0.1000E-02
    -15.428  0.0000E+00  0.0000E+00  0.1000E-02  0.1000E-02
    -15.335  0.0000E+00  0.0000E+00  0.1000E-02  0.1000E-02
    -15.241  0.0000E+00  0.0000E+00  0.1000E-02  0.1000E-02
    -15.147  0.0000E+00  0.0000E+00  0.1000E-02  0.1000E-02
    -15.054  0.0000E+00  0.0000E+00  0.1000E-02  0.1000E-02
    -14.960  0.0000E+00  0.0000E+00  0.1000E-02  0.1000E-02
    -14.866  0.0000E+00  0.0000E+00  0.1000E-02  0.1000E-02
    -14.773  0.0000E+00  0.0000E+00  0.1000E-02  0.1000E-02
    -14.679  0.0000E+00  0.0000E+00  0.1000E-02  0.1000E-02
    -14.585  0.0000E+00  0.0000E+00  0.1000E-02  0.1000E-02
    -14.491  0.0000E+00  0.0000E+00  0.1000E-02  0.1000E-02
    -14.398  0.0000E+00  0.0000E+00  0.1000E-02  0.1000E-02
    -14.304  0.0000E+00  0.0000E+00  0.1000E-02  0.1000E-02
    -14.210  0.0000E+00  0.0000E+00  0.1000E-02  0.1000E-02
    -14.117  0.0000E+00  0.0000E+00  0.1000E-02  0.1000E-02
    -14.023  0.0000E+00  0.0000E+00  0.1000E-02  0.1000E-02
    -13.929  0.0000E+00  0.0000E+00  0.1000E-02  0.1000E-02
    -13.836  0.0000E+00  0.0000E+00  0.1000E-02  0.1000E-02
    -13.742  0.0000E+00  0.0000E+00  0.1000E-02  0.1000E-02
    -13.648  0.2370E-17  0.2370E-17  0.1000E-02  0.1000E-02
    -13.555  0.5226E-13  0.5230E-13  0.1000E-02  0.1000E-02
    -13.461  0.2211E-09  0.2212E-09  0.1000E-02  0.1000E-02
    -13.367  0.1699E-06  0.1699E-06  0.1000E-02  0.1000E-02
    -13.274  0.2430E-04  0.2431E-04  0.1002E-02  0.1002E-02
    -13.180  0.6751E-03  0.6752E-03  0.1066E-02  0.1066E-02
    -13.086  0.3854E-02  0.3855E-02  0.1427E-02  0.1427E-02
    -12.993  0.4763E-02  0.4763E-02  0.1873E-02  0.1873E-02
    -12.899  0.1284E-02  0.1284E-02  0.1993E-02  0.1993E-02
    -12.805  0.7234E-04  0.7232E-04  0.2000E-02  0.2000E-02
    -12.711  0.8029E-06  0.8025E-06  0.2000E-02  0.2000E-02
    -12.618  0.1676E-08  0.1675E-08  0.2000E-02  0.2000E-02
    -12.524  0.6390E-12  0.6386E-12  0.2000E-02  0.2000E-02
    -12.430  0.4385E-16  0.4385E-16  0.2000E-02  0.2000E-02
    -12.337  0.0000E+00  0.0000E+00  0.2000E-02  0.2000E-02
    -12.243  0.0000E+00  0.0000E+00  0.2000E-02  0.2000E-02
    -12.149  0.0000E+00  0.0000E+00  0.2000E-02  0.2000E-02
    -12.056  0.0000E+00  0.0000E+00  0.2000E-02  0.2000E-02
    -11.962  0.0000E+00  0.0000E+00  0.2000E-02  0.2000E-02
    -11.868  0.0000E+00  0.0000E+00  0.2000E-02  0.2000E-02
    -11.775  0.0000E+00  0.0000E+00  0.2000E-02  0.2000E-02
    -11.681  0.0000E+00  0.0000E+00  0.2000E-02  0.2000E-02
    -11.587  0.0000E+00  0.0000E+00  0.2000E-02  0.2000E-02
    -11.494  0.0000E+00  0.0000E+00  0.2000E-02  0.2000E-02
    -11.400  0.0000E+00  0.0000E+00  0.2000E-02  0.2000E-02
    -11.306  0.0000E+00  0.0000E+00  0.2000E-02  0.2000E-02
    -11.212  0.0000E+00  0.0000E+00  0.2000E-02  0.2000E-02
    -11.119  0.0000E+00  0.0000E+00  0.2000E-02  0.2000E-02
    -11.025  0.0000E+00  0.0000E+00  0.2000E-02  0.2000E-02
    -10.931  0.0000E+00  0.0000E+00  0.2000E-02  0.2000E-02
    -10.838  0.0000E+00  0.0000E+00  0.2000E-02  0.2000E-02
    -10.744  0.0000E+00  0.0000E+00  0.2000E-02  0.2000E-02
    -10.650  0.0000E+00  0.0000E+00  0.2000E-02  0.2000E-02
    -10.557  0.0000E+00  0.0000E+00  0.2000E-02  0.2000E-02
    -10.463  0.0000E+00  0.0000E+00  0.2000E-02  0.2000E-02
    -10.369  0.0000E+00  0.0000E+00  0.2000E-02  0.2000E-02
    -10.276  0.0000E+00  0.0000E+00  0.2000E-02  0.2000E-02
    -10.182  0.0000E+00  0.0000E+00  0.2000E-02  0.2000E-02
    -10.088  0.0000E+00  0.0000E+00  0.2000E-02  0.2000E-02
     -9.995  0.0000E+00  0.0000E+00  0.2000E-02  0.2000E-02
     -9.901  0.0000E+00  0.0000E+00  0.2000E-02  0.2000E-02
     -9.807  0.3751E-15  0.3751E-15  0.2000E-02  0.2000E-02
     -9.714  0.3822E-11  0.3823E-11  0.2000E-02  0.2000E-02
     -9.620  0.7012E-08  0.7013E-08  0.2000E-02  0.2000E-02
     -9.526  0.2361E-05  0.2361E-05  0.2000E-02  0.2000E-02
     -9.432  0.1508E-03  0.1508E-03  0.2014E-02  0.2014E-02
     -9.339  0.1919E-02  0.1919E-02  0.2194E-02  0.2194E-02
     -9.245  0.5165E-02  0.5165E-02  0.2678E-02  0.2678E-02
     -9.151  0.3042E-02  0.3042E-02  0.2963E-02  0.2963E-02
     -9.058  0.3846E-03  0.3846E-03  0.2999E-02  0.2999E-02
     -8.964  0.9870E-05  0.9868E-05  0.3000E-02  0.3000E-02
     -8.870  0.4867E-07  0.4866E-07  0.3000E-02  0.3000E-02
     -8.777  0.4441E-10  0.4440E-10  0.3000E-02  0.3000E-02
     -8.683  0.7330E-14  0.7327E-14  0.3000E-02  0.3000E-02
     -8.589  0.0000E+00  0.0000E+00  0.3000E-02  0.3000E-02
     -8.496  0.0000E+00  0.0000E+00  0.3000E-02  0.3000E-02
     -8.402  0.0000E+00  0.0000E+00  0.3000E-02  0.3000E-02
     -8.308  0.0000E+00  0.0000E+00  0.3000E-02  0.3000E-02
     -8.215  0.0000E+00  0.0000E+00  0.3000E-02  0.3000E-02
     -8.121  0.0000E+00  0.0000E+00  0.3000E-02  0.3000E-02
     -8.027  0.0000E+00  0.0000E+00  0.3000E-02  0.3000E-02
     -7.933  0.0000E+00  0.0000E+00  0.3000E-02  0.3000E-02
     -7.840  0.0000E+00  0.0000E+00  0.3000E-02  0.3000E-02
     -7.746  0.6518E-16  0.6518E-16  0.3000E-02  0.3000E-02
     -7.652  0.8921E-12  0.8915E-12  0.3000E-02  0.3000E-02
     -7.559  0.2191E-08  0.2190E-08  0.3000E-02  0.3000E-02
     -7.465  0.9839E-06  0.9835E-06  0.3000E-02  0.3000E-02
     -7.371  0.8321E-04  0.8318E-04  0.3008E-02  0.3008E-02
     -7.278  0.1389E-02  0.1389E-02  0.3138E-02  0.3138E-02
     -7.184  0.4858E-02  0.4858E-02  0.3593E-02  0.3593E-02
     -7.090  0.3709E-02  0.3710E-02  0.3941E-02  0.3941E-02
     -6.997  0.6121E-03  0.6122E-03  0.3998E-02  0.3998E-02
     -6.903  0.2071E-04  0.2072E-04  0.4000E-02  0.4000E-02
     -6.809  0.1358E-06  0.1359E-06  0.4000E-02  0.4000E-02
     -6.716  0.1657E-09  0.1657E-09  0.4000E-02  0.4000E-02
     -6.622  0.3666E-13  0.3669E-13  0.4000E-02  0.4000E-02
     -6.528  0.1185E-17  0.1185E-17  0.4000E-02  0.4000E-02
     -6.435  0.0000E+00  0.0000E+00  0.4000E-02  0.4000E-02
     -6.341  0.0000E+00  0.0000E+00  0.4000E-02  0.4000E-02
     -6.247  0.0000E+00  0.0000E+00  0.4000E-02  0.4000E-02
     -6.153  0.0000E+00  0.0000E+00  0.4000E-02  0.4000E-02
     -6.060  0.0000E+00  0.0000E+00  0.4000E-02  0.4000E-02
     -5.966  0.0000E+00  0.0000E+00  0.4000E-02  0.4000E-02
     -5.872  0.0000E+00  0.0000E+00  0.4000E-02  0.4000E-02
     -5.779  0.0000E+00  0.0000E+00  0.4000E-02  0.4000E-02
     -5.685  0.0000E+00  0.0000E+00  0.4000E-02  0.4000E-02
     -5.591  0.0000E+00  0.0000E+00  0.4000E-02  0.4000E-02
     -5.498  0.0000E+00  0.0000E+00  0.4000E-02  0.4000E-02
     -5.404  0.0000E+00  0.0000E+00  0.4000E-02  0.4000E-02
     -5.310  0.0000E+00  0.0000E+00  0.4000E-02  0.4000E-02
     -5.217  0.0000E+00  0.0000E+00  0.4000E-02  0.4000E-02
     -5.123  0.0000E+00  0.0000E+00  0.4000E-02  0.4000E-02
     -5.029  0.0000E+00  0.0000E+00  0.4000E-02  0.4000E-02
     -4.936  0.0000E+00  0.0000E+00  0.4000E-02  0.4000E-02
     -4.842  0.0000E+00  0.0000E+00  0.4000E-02  0.4000E-02
     -4.748  0.0000E+00  0.0000E+00  0.4000E-02  0.4000E-02
     -4.654  0.0000E+00  0.0000E+00  0.4000E-02  0.4000E-02
     -4.561  0.0000E+00  0.0000E+00  0.4000E-02  0.4000E-02
     -4.467  0.0000E+00  0.0000E+00  0.4000E-02  0.4000E-02
     -4.373  0.0000E+00  0.0000E+00  0.4000E-02  0.4000E-02
     -4.280  0.0000E+00  0.0000E+00  0.4000E-02  0.4000E-02
     -4.186  0.0000E+00  0.0000E+00  0.4000E-02  0.4000E-02
     -4.092  0.0000E+00  0.0000E+00  0.4000E-02  0.4000E-02
     -3.999  0.0000E+00  0.0000E+00  0.4000E-02  0.4000E-02
     -3.905  0.0000E+00  0.0000E+00  0.4000E-02  0.4000E-02
     -3.811  0.0000E+00  0.0000E+00  0.4000E-02  0.4000E-02
     -3.718  0.0000E+00  0.0000E+00  0.4000E-02  0.4000E-02
     -3.624  0.0000E+00  0.0000E+00  0.4000E-02  0.4000E-02
     -3.530  0.0000E+00  0.0000E+00  0.4000E-02  0.4000E-02
     -3.437  0.0000E+00  0.0000E+00  0.4000E-02  0.4000E-02
     -3.343  0.0000E+00  0.0000E+00  0.4000E-02  0.4000E-02
     -3.249  0.0000E+00  0.0000E+00  0.4000E-02  0.4000E-02
     -3.156  0.0000E+00  0.0000E+00  0.4000E-02  0.4000E-02
     -3.062  0.0000E+00  0.0000E+00  0.4000E-02  0.4000E-02
     -2.968  0.0000E+00  0.0000E+00  0.4000E-02  0.4000E-02
     -2.874  0.0000E+00  0.0000E+00  0.4000E-02  0.4000E-02
     -2.781  0.0000E+00  0.0000E+00  0.4000E-02  0.4000E-02
     -2.687  0.0000E+00  0.0000E+00  0.4000E-02  0.4000E-02
     -2.593  0.0000E+00  0.0000E+00  0.4000E-02  0.4000E-02
     -2.500  0.0000E+00  0.0000E+00  0.4000E-02  0.4000E-02
     -2.406  0.0000E+00  0.0000E+00  0.4000E-02  0.4000E-02
     -2.312  0.0000E+00  0.0000E+00  0.4000E-02  0.4000E-02
     -2.219  0.0000E+00  0.0000E+00  0.4000E-02  0.4000E-02
     -2.125  0.0000E+00  0.0000E+00  0.4000E-02  0.4000E-02
     -2.031  0.0000E+00  0.0000E+00  0.4000E-02  0.4000E-02
     -1.938  0.0000E+00  0.0000E+00  0.4000E-02  0.4000E-02
     -1.844  0.0000E+00  0.0000E+00  0.4000E-02  0.4000E-02
     -1.750  0.0000E+00  0.0000E+00  0.4000E-02  0.4000E-02
     -1.657  0.0000E+00  0.0000E+00  0.4000E-02  0.4000E-02
     -1.563  0.4148E-17  0.4148E-17  0.4000E-02  0.4000E-02
     -1.469  0.9100E-13  0.9109E-13  0.4000E-02  0.4000E-02
     -1.375  0.3470E-09  0.3473E-09  0.4000E-02  0.4000E-02
     -1.282  0.2406E-06  0.2407E-06  0.4000E-02  0.4000E-02
     -1.188  0.3113E-04  0.3114E-04  0.4003E-02  0.4003E-02
     -1.094  0.7843E-03  0.7845E-03  0.4076E-02  0.4076E-02
     -1.001  0.4076E-02  0.4077E-02  0.4458E-02  0.4458E-02
     -0.907  0.4595E-02  0.4595E-02  0.4889E-02  0.4889E-02
     -0.813  0.1129E-02  0.1128E-02  0.4995E-02  0.4995E-02
     -0.720  0.5772E-04  0.5769E-04  0.5000E-02  0.5000E-02
     -0.626  0.5796E-06  0.5792E-06  0.5000E-02  0.5000E-02
     -0.532  0.1092E-08  0.1091E-08  0.5000E-02  0.5000E-02
     -0.439  0.4738E-11  0.4737E-11  0.5000E-02  0.5000E-02
     -0.345  0.7790E-08  0.7790E-08  0.5000E-02  0.5000E-02
     -0.251  0.2554E-05  0.2554E-05  0.5000E-02  0.5000E-02
     -0.158  0.1589E-03  0.1589E-03  0.5015E-02  0.5015E-02
     -0.064  0.1974E-02  0.1974E-02  0.5200E-02  0.5200E-02
      0.030  0.5275E-02  0.5275E-02  0.5694E-02  0.5694E-02
      0.124  0.4739E-02  0.4740E-02  0.6138E-02  0.6138E-02
      0.217  0.8211E-02  0.8212E-02  0.6907E-02  0.6908E-02
      0.311  0.8899E-02  0.8898E-02  0.7741E-02  0.7741E-02
      0.405  0.2581E-02  0.2580E-02  0.7983E-02  0.7983E-02
      0.498  0.1791E-03  0.1790E-03  0.8000E-02  0.8000E-02
      0.592  0.2677E-05  0.2676E-05  0.8000E-02  0.8000E-02
      0.686  0.7904E-08  0.7898E-08  0.8000E-02  0.8000E-02
      0.779  0.4363E-11  0.4359E-11  0.8000E-02  0.8000E-02
      0.873  0.4373E-15  0.4361E-15  0.8000E-02  0.8000E-02
      0.967  0.0000E+00  0.0000E+00  0.8000E-02  0.8000E-02
      1.060  0.0000E+00  0.0000E+00  0.8000E-02  0.8000E-02
      1.154  0.0000E+00  0.0000E+00  0.8000E-02  0.8000E-02
      1.248  0.0000E+00  0.0000E+00  0.8000E-02  0.8000E-02
      1.341  0.0000E+00  0.0000E+00  0.8000E-02  0.8000E-02
      1.435  0.0000E+00  0.0000E+00  0.8000E-02  0.8000E-02
      1.529  0.0000E+00  0.0000E+00  0.8000E-02  0.8000E-02
