    3    3 1000    2
  0.3080000E+04  0.2000000E-08  0.2100000E-08  0.2200000E-08  0.3500000E-15
  1.000000000000000E-004
  CAR 
 unknown system                          
      8      1      8
 
  0.0000000E+00  0.0000000E+00  0.0000000E+00  0.1000000E+01
    1      -25.299440    -25.299439   1.000000   1.000000
    2      -13.073131    -13.073139   1.000000   1.000000
    3       -9.277764     -9.277767   1.000000   1.000000
    4       -7.200668     -7.200661   1.000000   1.000000
    5       -0.993327     -0.993337   0.000000   0.000000
    6       -0.004344     -0.004344   0.000000   0.000000
    7        0.200494      0.200465   0.000000   0.000000
    8        0.251255      0.251245   0.000000   0.000000
