       N       E                     dE             d eps       ncg     rms          rms(c)
DAV:   1     0.637515989389E+02    0.63752E+02   -0.12386E+03    64   0.304E+02
DAV:   2     0.197874041590E+01   -0.61773E+02   -0.61768E+02    56   0.107E+02
DAV:   3    -0.145598261913E+02   -0.16539E+02   -0.16539E+02    32   0.665E+01
DAV:   4    -0.162474423726E+02   -0.16876E+01   -0.16876E+01    48   0.187E+01
DAV:   5    -0.162628094264E+02   -0.15367E-01   -0.15367E-01    64   0.141E+00
DAV:   6    -0.162628149111E+02   -0.54847E-05   -0.54847E-05    56   0.267E-02
DAV:   7    -0.162628149261E+02   -0.14970E-07   -0.14981E-07    64   0.103E-03
DAV:   8    -0.162628149261E+02   -0.18190E-11   -0.11697E-10    40   0.202E-05
DAV:   9    -0.162628149261E+02   -0.56843E-13   -0.94076E-11    40   0.516E-06
DAV:  10    -0.162628149261E+02    0.00000E+00   -0.88978E-11    40   0.234E-06    0.791E+00
RMM:  11    -0.143670745557E+02    0.18957E+01   -0.72760E+00    32   0.196E+01    0.318E+00
RMM:  12    -0.142708587467E+02    0.96216E-01   -0.43797E-01    34   0.346E+00    0.215E+00
RMM:  13    -0.142140085763E+02    0.56850E-01   -0.16661E-01    32   0.433E+00    0.610E-01
RMM:  14    -0.141982968906E+02    0.15712E-01   -0.66976E-02    32   0.164E+00    0.142E-01
RMM:  15    -0.142068564540E+02   -0.85596E-02   -0.27923E-02    32   0.934E-01    0.286E-01
RMM:  16    -0.142071141065E+02   -0.25765E-03   -0.64989E-03    32   0.685E-01    0.503E-02
RMM:  17    -0.142144758533E+02   -0.73617E-02   -0.53334E-03    32   0.527E-01    0.116E-01
RMM:  18    -0.142151303281E+02   -0.65447E-03   -0.70790E-04    30   0.184E-01    0.580E-02
RMM:  19    -0.142172873279E+02   -0.21570E-02   -0.27890E-03    32   0.345E-01    0.602E-02
RMM:  20    -0.142176059485E+02   -0.31862E-03   -0.12323E-04    24   0.775E-02    0.496E-02
RMM:  21    -0.142179000741E+02   -0.29413E-03   -0.10169E-03    32   0.226E-01    0.290E-02
RMM:  22    -0.142182996532E+02   -0.39958E-03   -0.69919E-05    24   0.599E-02    0.373E-02
RMM:  23    -0.142182969242E+02    0.27290E-05   -0.30711E-05    24   0.451E-02
   1 F= -.14218297E+02 E0= -.14218297E+02  d E =-.142183E+02  mag=    -0.0000
       N       E                     dE             d eps       ncg     rms          rms(c)
DAV:   1    -0.142178947390E+02    0.40491E-03   -0.32320E-01    32   0.579E+00    0.231E-01
RMM:   2    -0.142172607863E+02    0.63395E-03   -0.86511E-03    32   0.828E-01    0.821E-02
RMM:   3    -0.142172442196E+02    0.16567E-04   -0.62044E-04    32   0.187E-01
   2 F= -.14217244E+02 E0= -.14217244E+02  d E =0.105270E-02  mag=     0.0000
       N       E                     dE             d eps       ncg     rms          rms(c)
DAV:   1    -0.142194429804E+02   -0.21822E-02   -0.11937E-01    32   0.355E+00    0.124E-01
RMM:   2    -0.142193403149E+02    0.10267E-03   -0.30875E-03    32   0.502E-01    0.449E-02
RMM:   3    -0.142193330841E+02    0.72308E-05   -0.17016E-04    24   0.108E-01
   3 F= -.14219333E+02 E0= -.14219333E+02  d E =-.103616E-02  mag=     0.0000
       N       E                     dE             d eps       ncg     rms          rms(c)
DAV:   1    -0.142193561621E+02   -0.15847E-04   -0.31139E-05    64   0.472E-02    0.642E-03
RMM:   2    -0.142193611850E+02   -0.50229E-05    0.00000E+00    14   0.102E-02
   4 F= -.14219361E+02 E0= -.14219361E+02  d E =-.106426E-02  mag=    -0.0000
       N       E                     dE             d eps       ncg     rms          rms(c)
DAV:   1    -0.142193719767E+02   -0.15815E-04   -0.11599E-05    64   0.303E-02    0.376E-03
RMM:   2    -0.142193733429E+02   -0.13662E-05    0.00000E+00    12   0.111E-02
   5 F= -.14219373E+02 E0= -.14219373E+02  d E =-.107642E-02  mag=    -0.0000
       N       E                     dE             d eps       ncg     rms          rms(c)
DAV:   1    -0.142195490980E+02   -0.17712E-03   -0.95041E-03    32   0.105E+00    0.200E-02
RMM:   2    -0.142195427720E+02    0.63259E-05   -0.86234E-05    24   0.957E-02
   6 F= -.14219543E+02 E0= -.14219543E+02  d E =-.169429E-03  mag=    -0.0000
