unknown system                          
           1
    20.000000    0.000000    0.000000
     0.000000   21.000000    0.000000
     0.000000    0.000000   22.000000
   O    H 
   1   2
Direct configuration=     1
   0.50000000  0.50000000  0.51355248
   0.50000000  0.53634471  0.48644752
   0.50000000  0.46365529  0.48644752
Direct configuration=     2
   0.50000000  0.50000000  0.51382849
   0.50000000  0.53666658  0.48630952
   0.50000000  0.46333342  0.48630951
Direct configuration=     3
   0.50000000  0.50000000  0.51366161
   0.50000000  0.53647197  0.48639296
   0.50000000  0.46352803  0.48639296
Direct configuration=     4
   0.50000000  0.50000000  0.51365998
   0.50000000  0.53647007  0.48639377
   0.50000000  0.46352993  0.48639377
Direct configuration=     5
   0.50000000  0.50000000  0.51366079
   0.50000000  0.53647102  0.48639337
   0.50000000  0.46352898  0.48639337
Direct configuration=     6
   0.50000000  0.50000000  0.51359911
   0.50000000  0.53654174  0.48642421
   0.50000000  0.46345826  0.48642421
